Created on Wed Dec 11 10:37:31 2024 

        2170 atoms
        2834 bonds
        5586 angles
        8314 dihedrals

           4 atom types
           4 bond types
           8 angle types
           4 dihedral types
           0.000000  40.180000 xlo xhi
           0.000000  39.476000 ylo yhi
           0.000000  26.284000 zlo zhi
           0.000000   0.000000   0.000000 xy xz yz

Masses

    1     1.007940000 # H_
    2    15.999400000 # O_3
    3    28.085500000 # Si3
    4    15.999400000 # O_2

Bond Coeffs

    1      559.995206        0.990254  # H_ O_3
    2      172.712984        1.470529  # H_ Si3
    3      351.182859        1.715879  # O_3 Si3
    4      365.702108        1.692864  # Si3 O_2

Angle Coeffs

    1              cosine/periodic      119.062103               1               1 # O_3 H_ Si3
    2                      fourier      131.621514        0.300235        0.267331        0.266745 # H_ O_3 Si3
    3                      fourier      221.735285        0.343737        0.374972        0.281246 # O_2 Si3 O_2
    4                      fourier       81.435257        0.343737        0.374972        0.281246 # H_ Si3 O_3
    5                      fourier       83.380072        0.343737        0.374972        0.281246 # H_ Si3 O_2
    6                      fourier      217.255565        0.343737        0.374972        0.281246 # O_3 Si3 O_2
    7                      fourier      212.931864        0.343737        0.374972        0.281246 # O_3 Si3 O_3
    8              cosine/periodic       88.853997              -1               3 # Si3 O_2 Si3

Dihedral Coeffs

    1        0.195656               1               2 # H_ O_3 Si3 H_
    2        0.260875               1               2 # H_ O_3 Si3 O_3
    3        0.333333               1               3 # O_2 Si3 O_2 Si3
    4        0.250000               1               3 # H_ Si3 O_2 Si3

Pair Coeffs

    1        0.044000        2.571134 # H_ H_
    2        0.060000        3.118146 # O_3 O_3
    3        0.402000        3.826410 # Si3 Si3
    4        0.060000        3.118146 # O_2 O_2

Atoms

       1      444        1     0.00000   12.89617   18.38279    3.41692
       2      444        1     0.00000   15.13902   17.57156   11.96211
       3      444        1     0.00000   18.20837   13.31486   12.13085
       4      444        1     0.00000   19.93491   13.66106   10.66841
       5      444        1     0.00000   17.77483   14.02780    9.99239
       6      444        1     0.00000   15.61998   17.33352    9.76635
       7      444        1     0.00000   16.38098   15.30919    6.56154
       8      444        1     0.00000   14.65083   16.75677    7.25544
       9      444        1     0.00000   13.23810   18.44713   15.44606
      10      444        1     0.00000   14.68097   17.37141   24.01227
      11      444        1     0.00000   18.08221   12.88378   24.28168
      12      444        1     0.00000   19.92566   13.29749   22.60687
      13      444        1     0.00000   17.66353   13.75383   21.87512
      14      444        1     0.00000   15.36202   17.19496   21.51267
      15      444        1     0.00000   16.43402   15.37274   18.28210
      16      444        1     0.00000   14.65124   16.75717   19.02121
      17      444        1     0.00000   18.33574   25.97087   11.71346
      18      444        1     0.00000   14.78021   20.53818    6.96421
      19      444        1     0.00000   13.54749   21.09518   10.05284
      20      444        1     0.00000   13.26302   22.81555    3.74810
      21      444        1     0.00000   14.94174   24.03496   12.47938
      22      444        1     0.00000   16.63934   25.42254   13.13858
      23      444        1     0.00000   16.21906   24.23116    4.86964
      24      444        1     0.00000   18.21842   26.38734   23.80069
      25      444        1     0.00000   14.81999   20.53226   18.63404
      26      444        1     0.00000   13.26462   21.15400   21.98946
      27      444        1     0.00000   13.55111   22.68567   15.76462
      28      444        1     0.00000   14.58293   24.33419   24.67384
      29      444        1     0.00000   16.38139   25.84691   25.41584
      30      444        1     0.00000   18.68169   26.01389   13.96758
      31      444        1     0.00000   16.39304   24.02944   16.67010
      32      444        1     0.00000   21.96158   13.08866    2.48331
      33      444        1     0.00000   25.36001   18.94374    7.64996
      34      444        1     0.00000   26.91538   18.32200    4.29454
      35      444        1     0.00000   26.62889   16.79033   10.51938
      36      444        1     0.00000   25.59707   15.14181    1.61016
      37      444        1     0.00000   23.79861   13.62909    0.86816
      38      444        1     0.00000   21.49831   13.46211   12.31642
      39      444        1     0.00000   23.78696   15.44656    9.61390
      40      444        1     0.00000   21.84426   13.50513   14.57054
      41      444        1     0.00000   25.39979   18.93782   19.31979
      42      444        1     0.00000   26.63251   18.38082   16.23116
      43      444        1     0.00000   26.91698   16.66045   22.53590
      44      444        1     0.00000   25.23826   15.44104   13.80462
      45      444        1     0.00000   23.54066   14.05346   13.14542
      46      444        1     0.00000   23.96094   15.24484   21.41436
      47      444        1     0.00000   26.94190   21.02887   10.83794
      48      444        1     0.00000   25.49903   22.10459    2.27173
      49      444        1     0.00000   22.09779   26.59222    2.00232
      50      444        1     0.00000   20.25434   26.17851    3.67713
      51      444        1     0.00000   22.51647   25.72217    4.40888
      52      444        1     0.00000   24.81798   22.28104    4.77133
      53      444        1     0.00000   23.74598   24.10326    8.00190
      54      444        1     0.00000   25.52876   22.71883    7.26279
      55      444        1     0.00000   27.28383   21.09321   22.86708
      56      444        1     0.00000   25.04098   21.90444   14.32189
      57      444        1     0.00000   21.97163   26.16114   14.15315
      58      444        1     0.00000   20.24509   25.81494   15.61559
      59      444        1     0.00000   22.40517   25.44820   16.29161
      60      444        1     0.00000   24.56002   22.14248   16.51765
      61      444        1     0.00000   23.79902   24.16681   19.72246
      62      444        1     0.00000   25.52917   22.71923   19.02856
      63      444        2     0.00000   12.30513   18.27147    2.61789
      64      444        2     0.00000   14.24381   17.17996   11.74895
      65      444        2     0.00000   17.93032   12.36586   11.98156
      66      444        2     0.00000   19.91120   12.73496   10.29150
      67      444        2     0.00000   17.44013   13.20275    9.53715
      68      444        2     0.00000   14.88669   16.93915    9.21254
      69      444        2     0.00000   15.95749   14.80350    5.81008
      70      444        2     0.00000   14.01478   16.40820    6.56706
      71      444        2     0.00000   12.30513   18.27147   15.75989
      72      444        2     0.00000   14.24381   17.17996   24.89095
      73      444        2     0.00000   17.93032   12.36586   25.12356
      74      444        2     0.00000   19.91120   12.73496   23.43350
      75      444        2     0.00000   17.44013   13.20275   22.67915
      76      444        2     0.00000   14.88669   16.93915   22.35454
      77      444        2     0.00000   15.95749   14.80350   18.95208
      78      444        2     0.00000   14.01478   16.40820   19.70906
      79      444        2     0.00000   18.07095   26.91079   11.49794
      80      444        2     0.00000   14.13131   20.63608    6.20959
      81      444        2     0.00000   12.65871   21.27954    9.63309
      82      444        2     0.00000   12.69487   23.07175    2.96615
      83      444        2     0.00000   14.17751   24.67250   12.38108
      84      444        2     0.00000   16.12022   26.27720   13.13806
      85      444        2     0.00000   15.83896   24.67250    4.05694
      86      444        2     0.00000   18.07095   26.91079   24.63994
      87      444        2     0.00000   14.13131   20.63608   19.35159
      88      444        2     0.00000   12.65871   21.27954   22.77509
      89      444        2     0.00000   12.69487   23.07175   16.10815
      90      444        2     0.00000   14.17751   24.67250   25.52308
      91      444        2     0.00000   16.12022   26.27720   26.28006
      92      444        2     0.00000   18.46472   26.98185   14.09479
      93      444        2     0.00000   15.83896   24.67250   17.19894
      94      444        2     0.00000   22.10905   12.56521    1.64406
      95      444        2     0.00000   26.04869   18.83992    6.93240
      96      444        2     0.00000   27.52129   18.19646    3.50891
      97      444        2     0.00000   27.48513   16.40425   10.17585
      98      444        2     0.00000   26.00249   14.80350    0.76092
      99      444        2     0.00000   24.05978   13.19880    0.00394
     100      444        2     0.00000   21.71528   12.49415   12.18920
     101      444        2     0.00000   24.34104   14.80350    9.08506
     102      444        2     0.00000   22.10905   12.56521   14.78606
     103      444        2     0.00000   26.04869   18.83992   20.07440
     104      444        2     0.00000   27.52129   18.19646   16.65091
     105      444        2     0.00000   27.48513   16.40425   23.31785
     106      444        2     0.00000   26.00249   14.80350   13.90292
     107      444        2     0.00000   24.05978   13.19880   13.14594
     108      444        2     0.00000   24.34104   14.80350   22.22706
     109      444        2     0.00000   27.87487   21.20453   10.52411
     110      444        2     0.00000   25.93619   22.29604    1.39305
     111      444        2     0.00000   22.24967   27.11014    1.16044
     112      444        2     0.00000   20.26880   26.74104    2.85050
     113      444        2     0.00000   22.73987   26.27325    3.60485
     114      444        2     0.00000   25.29331   22.53685    3.92946
     115      444        2     0.00000   24.22251   24.67250    7.33192
     116      444        2     0.00000   26.16522   23.06780    6.57494
     117      444        2     0.00000   27.87487   21.20453   23.66611
     118      444        2     0.00000   25.93619   22.29604   14.53505
     119      444        2     0.00000   22.24967   27.11014   14.30244
     120      444        2     0.00000   20.26880   26.74104   15.99250
     121      444        2     0.00000   22.73987   26.27325   16.74685
     122      444        2     0.00000   25.29331   22.53685   17.07146
     123      444        2     0.00000   24.22251   24.67250   20.47392
     124      444        2     0.00000   26.16522   23.06780   19.71694
     125      444        3     0.00000    8.46593    1.40337    9.06535
     126      444        3     0.00000    1.57907   11.27237    2.49435
     127      444        3     0.00000    8.46593    8.46563    9.06535
     128      444        3     0.00000    1.57907   18.33463    2.49435
     129      444        3     0.00000   11.62407   18.33463    4.07665
     130      444        3     0.00000   18.51093    8.46563   10.64765
     131      444        3     0.00000   11.62407   11.27237    4.07665
     132      444        3     0.00000   18.51093    1.40337   10.64765
     133      444        3     0.00000    6.54733    0.66320   11.17070
     134      444        3     0.00000    3.49767   10.53220    4.59970
     135      444        3     0.00000    6.54733    9.20580   11.17070
     136      444        3     0.00000    3.49767   19.07480    4.59970
     137      444        3     0.00000   16.59233    9.20580    8.54230
     138      444        3     0.00000   13.54267   10.53220    1.97130
     139      444        3     0.00000   16.59233    0.66320    8.54230
     140      444        3     0.00000    5.60913    1.05796    0.86080
     141      444        3     0.00000    4.43587   10.92696    7.43180
     142      444        3     0.00000    5.60913    8.81104    0.86080
     143      444        3     0.00000    4.43587   18.68004    7.43180
     144      444        3     0.00000   15.65413    8.81104    5.71020
     145      444        3     0.00000   14.48087   10.92696   12.28120
     146      444        3     0.00000   15.65413    1.05796    5.71020
     147      444        3     0.00000    2.50321    1.01453    0.63213
     148      444        3     0.00000    7.54179   10.88353    7.20313
     149      444        3     0.00000    2.50321    8.85447    0.63213
     150      444        3     0.00000    7.54179   18.72347    7.20313
     151      444        3     0.00000   12.54821    8.85447    5.93887
     152      444        3     0.00000   17.58679   10.88353   12.50987
     153      444        3     0.00000   12.54821    1.01453    5.93887
     154      444        3     0.00000    1.44849    0.71057   10.81981
     155      444        3     0.00000    8.59651   10.57957    4.24881
     156      444        3     0.00000    1.44849    9.15843   10.81981
     157      444        3     0.00000    8.59651   19.02743    4.24881
     158      444        3     0.00000   11.49349    9.15843    8.89319
     159      444        3     0.00000   18.64151   10.57957    2.32219
     160      444        3     0.00000   11.49349    0.71057    8.89319
     161      444        3     0.00000    4.08631    1.35600    9.45830
     162      444        3     0.00000    5.95869   11.22500    2.88730
     163      444        3     0.00000    4.08631    8.51300    9.45830
     164      444        3     0.00000    5.95869   18.38200    2.88730
     165      444        3     0.00000   14.13131    8.51300   10.25470
     166      444        3     0.00000   16.00369   11.22500    3.68370
     167      444        3     0.00000   14.13131    1.35600   10.25470
     168      444        3     0.00000    8.42776   16.33122    8.94313
     169      444        3     0.00000    1.61725    6.46222    2.37213
     170      444        3     0.00000    8.42775   13.27578    8.94313
     171      444        3     0.00000    1.61725    3.40678    2.37213
     172      444        3     0.00000   11.66225    3.40678    4.19887
     173      444        3     0.00000   11.66225    6.46222    4.19887
     174      444        3     0.00000    6.33237   17.30036   10.98803
     175      444        3     0.00000    3.71263    7.43136    4.41703
     176      444        3     0.00000    6.33237   12.30664   10.98803
     177      444        3     0.00000    3.71263    2.43764    4.41703
     178      444        3     0.00000   13.75763    2.43764    2.15397
     179      444        3     0.00000   16.37737   12.30664    8.72497
     180      444        3     0.00000   13.75763    7.43136    2.15397
     181      444        3     0.00000    5.49060   16.33912    0.52831
     182      444        3     0.00000    4.55440    6.47012    7.09931
     183      444        3     0.00000    5.49060   13.26788    0.52831
     184      444        3     0.00000    4.55440    3.39888    7.09931
     185      444        3     0.00000   14.59940    3.39888   12.61369
     186      444        3     0.00000   15.53560   13.26788    6.04269
     187      444        3     0.00000   14.59940    6.47012   12.61369
     188      444        3     0.00000    2.38067   16.34109    0.24050
     189      444        3     0.00000    7.66434    6.47209    6.81150
     190      444        3     0.00000    2.38067   13.26591    0.24050
     191      444        3     0.00000    7.66434    3.39691    6.81150
     192      444        3     0.00000   17.70933    3.39691   12.90150
     193      444        3     0.00000   12.42567   13.26591    6.33050
     194      444        3     0.00000   17.70933    6.47209   12.90150
     195      444        3     0.00000   12.42567   16.34109    6.33050
     196      444        3     0.00000    1.31991   17.35760   10.62794
     197      444        3     0.00000    8.72509    7.48860    4.05694
     198      444        3     0.00000    1.31991   12.24940   10.62794
     199      444        3     0.00000    8.72509    2.38040    4.05694
     200      444        3     0.00000   18.77009    2.38040    2.51406
     201      444        3     0.00000   11.36491   12.24940    9.08506
     202      444        3     0.00000   18.77009    7.48860    2.51406
     203      444        3     0.00000   11.36491   17.35760    9.08506
     204      444        3     0.00000    3.91152   16.35885    9.32031
     205      444        3     0.00000    6.13348    6.48985    2.74931
     206      444        3     0.00000    3.91152   13.24815    9.32031
     207      444        3     0.00000    6.13348    3.37915    2.74931
     208      444        3     0.00000   16.17848    3.37915    3.82169
     209      444        3     0.00000   13.95652   13.24815   10.39269
     210      444        3     0.00000   16.17848    6.48985    3.82169
     211      444        3     0.00000   13.95652   16.35885   10.39269
     212      444        3     0.00000    8.46593    1.40337   22.20735
     213      444        3     0.00000    1.57907   11.27237   15.63635
     214      444        3     0.00000    8.46593    8.46563   22.20735
     215      444        3     0.00000    1.57907   18.33463   15.63635
     216      444        3     0.00000   11.62407   18.33463   17.21865
     217      444        3     0.00000   18.51093    8.46563   23.78965
     218      444        3     0.00000   11.62407   11.27237   17.21865
     219      444        3     0.00000   18.51093    1.40337   23.78965
     220      444        3     0.00000    6.54733    0.66320   24.31270
     221      444        3     0.00000    3.49767   10.53220   17.74170
     222      444        3     0.00000    6.54733    9.20580   24.31270
     223      444        3     0.00000    3.49767   19.07480   17.74170
     224      444        3     0.00000   16.59233    9.20580   21.68430
     225      444        3     0.00000   13.54267   10.53220   15.11330
     226      444        3     0.00000   16.59233    0.66320   21.68430
     227      444        3     0.00000    5.60913    1.05796   14.00280
     228      444        3     0.00000    4.43587   10.92696   20.57380
     229      444        3     0.00000    5.60913    8.81104   14.00280
     230      444        3     0.00000    4.43587   18.68004   20.57380
     231      444        3     0.00000   15.65413    8.81104   18.85220
     232      444        3     0.00000   14.48087   10.92696   25.42320
     233      444        3     0.00000   15.65413    1.05796   18.85220
     234      444        3     0.00000    2.50321    1.01453   13.77413
     235      444        3     0.00000    7.54179   10.88353   20.34513
     236      444        3     0.00000    2.50321    8.85447   13.77413
     237      444        3     0.00000    7.54179   18.72347   20.34513
     238      444        3     0.00000   12.54821    8.85447   19.08087
     239      444        3     0.00000   17.58679   10.88353   25.65187
     240      444        3     0.00000   12.54821    1.01453   19.08087
     241      444        3     0.00000    1.44849    0.71057   23.96181
     242      444        3     0.00000    8.59651   10.57957   17.39081
     243      444        3     0.00000    1.44849    9.15843   23.96181
     244      444        3     0.00000    8.59651   19.02743   17.39081
     245      444        3     0.00000   11.49349    9.15843   22.03519
     246      444        3     0.00000   18.64151   10.57957   15.46419
     247      444        3     0.00000   11.49349    0.71057   22.03519
     248      444        3     0.00000    4.08631    1.35600   22.60030
     249      444        3     0.00000    5.95869   11.22500   16.02930
     250      444        3     0.00000    4.08631    8.51300   22.60030
     251      444        3     0.00000    5.95869   18.38200   16.02930
     252      444        3     0.00000   14.13131    8.51300   23.39670
     253      444        3     0.00000   16.00369   11.22500   16.82570
     254      444        3     0.00000   14.13131    1.35600   23.39670
     255      444        3     0.00000    8.42776   16.33122   22.08513
     256      444        3     0.00000    1.61725    6.46222   15.51413
     257      444        3     0.00000    8.42776   13.27578   22.08513
     258      444        3     0.00000    1.61725    3.40678   15.51413
     259      444        3     0.00000   11.66225    3.40678   17.34087
     260      444        3     0.00000   11.66225    6.46222   17.34087
     261      444        3     0.00000    6.33237   17.30036   24.13003
     262      444        3     0.00000    3.71263    7.43136   17.55903
     263      444        3     0.00000    6.33237   12.30664   24.13003
     264      444        3     0.00000    3.71263    2.43764   17.55903
     265      444        3     0.00000   13.75763    2.43764   15.29597
     266      444        3     0.00000   16.37737   12.30664   21.86697
     267      444        3     0.00000   13.75763    7.43136   15.29597
     268      444        3     0.00000    5.49060   16.33912   13.67031
     269      444        3     0.00000    4.55440    6.47012   20.24131
     270      444        3     0.00000    5.49060   13.26788   13.67031
     271      444        3     0.00000    4.55440    3.39888   20.24131
     272      444        3     0.00000   14.59940    3.39888   25.75569
     273      444        3     0.00000   15.53560   13.26788   19.18469
     274      444        3     0.00000   14.59940    6.47012   25.75569
     275      444        3     0.00000    2.38067   16.34109   13.38250
     276      444        3     0.00000    7.66434    6.47209   19.95350
     277      444        3     0.00000    2.38067   13.26591   13.38250
     278      444        3     0.00000    7.66434    3.39691   19.95350
     279      444        3     0.00000   17.70933    3.39691   26.04350
     280      444        3     0.00000   12.42567   13.26591   19.47250
     281      444        3     0.00000   17.70933    6.47209   26.04350
     282      444        3     0.00000   12.42567   16.34109   19.47250
     283      444        3     0.00000    1.31991   17.35760   23.76994
     284      444        3     0.00000    8.72509    7.48860   17.19894
     285      444        3     0.00000    1.31991   12.24940   23.76994
     286      444        3     0.00000    8.72509    2.38040   17.19894
     287      444        3     0.00000   18.77009    2.38040   15.65606
     288      444        3     0.00000   11.36491   12.24940   22.22706
     289      444        3     0.00000   18.77009    7.48860   15.65606
     290      444        3     0.00000   11.36491   17.35760   22.22706
     291      444        3     0.00000    3.91152   16.35885   22.46231
     292      444        3     0.00000    6.13348    6.48985   15.89131
     293      444        3     0.00000    3.91152   13.24815   22.46231
     294      444        3     0.00000    6.13348    3.37915   15.89131
     295      444        3     0.00000   16.17848    3.37915   16.96369
     296      444        3     0.00000   13.95652   13.24815   23.53469
     297      444        3     0.00000   16.17848    6.48985   16.96369
     298      444        3     0.00000   13.95652   16.35885   23.53469
     299      444        3     0.00000    8.46593   21.14137    9.06535
     300      444        3     0.00000    1.57907   31.01037    2.49435
     301      444        3     0.00000    8.46593   28.20363    9.06535
     302      444        3     0.00000    1.57907   38.07263    2.49435
     303      444        3     0.00000   11.62407   38.07263    4.07665
     304      444        3     0.00000   18.51093   28.20363   10.64765
     305      444        3     0.00000   11.62407   31.01037    4.07665
     306      444        3     0.00000    6.54733   20.40120   11.17070
     307      444        3     0.00000    3.49767   30.27020    4.59970
     308      444        3     0.00000    6.54733   28.94380   11.17070
     309      444        3     0.00000    3.49767   38.81280    4.59970
     310      444        3     0.00000   13.54267   38.81280    1.97130
     311      444        3     0.00000   16.59233   28.94380    8.54230
     312      444        3     0.00000   13.54267   30.27020    1.97130
     313      444        3     0.00000    5.60913   20.79596    0.86080
     314      444        3     0.00000    4.43587   30.66496    7.43180
     315      444        3     0.00000    5.60913   28.54904    0.86080
     316      444        3     0.00000    4.43587   38.41804    7.43180
     317      444        3     0.00000   14.48087   38.41804   12.28120
     318      444        3     0.00000   15.65413   28.54904    5.71020
     319      444        3     0.00000   14.48087   30.66496   12.28120
     320      444        3     0.00000    2.50321   20.75253    0.63213
     321      444        3     0.00000    7.54179   30.62153    7.20313
     322      444        3     0.00000    2.50321   28.59247    0.63213
     323      444        3     0.00000    7.54179   38.46147    7.20313
     324      444        3     0.00000   17.58679   38.46147   12.50987
     325      444        3     0.00000   12.54821   28.59247    5.93887
     326      444        3     0.00000   17.58679   30.62153   12.50987
     327      444        3     0.00000   12.54821   20.75253    5.93887
     328      444        3     0.00000    1.44849   20.44857   10.81981
     329      444        3     0.00000    8.59651   30.31757    4.24881
     330      444        3     0.00000    1.44849   28.89643   10.81981
     331      444        3     0.00000    8.59651   38.76543    4.24881
     332      444        3     0.00000   18.64151   38.76543    2.32219
     333      444        3     0.00000   11.49349   28.89643    8.89319
     334      444        3     0.00000   18.64151   30.31757    2.32219
     335      444        3     0.00000   11.49349   20.44857    8.89319
     336      444        3     0.00000    4.08631   21.09400    9.45830
     337      444        3     0.00000    5.95869   30.96300    2.88730
     338      444        3     0.00000    4.08631   28.25100    9.45830
     339      444        3     0.00000    5.95869   38.12000    2.88730
     340      444        3     0.00000   16.00369   38.12000    3.68370
     341      444        3     0.00000   14.13131   28.25100   10.25470
     342      444        3     0.00000   16.00369   30.96300    3.68370
     343      444        3     0.00000    8.42776   36.06922    8.94313
     344      444        3     0.00000    1.61725   26.20022    2.37213
     345      444        3     0.00000    8.42776   33.01378    8.94313
     346      444        3     0.00000    1.61725   23.14478    2.37213
     347      444        3     0.00000   11.66225   23.14478    4.19887
     348      444        3     0.00000   18.47276   33.01378   10.76987
     349      444        3     0.00000   11.66225   26.20022    4.19887
     350      444        3     0.00000   18.47276   36.06922   10.76987
     351      444        3     0.00000    6.33237   37.03836   10.98803
     352      444        3     0.00000    3.71263   27.16936    4.41703
     353      444        3     0.00000    6.33237   32.04464   10.98803
     354      444        3     0.00000    3.71263   22.17564    4.41703
     355      444        3     0.00000   16.37737   32.04464    8.72497
     356      444        3     0.00000   13.75763   27.16936    2.15397
     357      444        3     0.00000   16.37737   37.03836    8.72497
     358      444        3     0.00000    5.49060   36.07712    0.52831
     359      444        3     0.00000    4.55440   26.20812    7.09931
     360      444        3     0.00000    5.49060   33.00588    0.52831
     361      444        3     0.00000    4.55440   23.13688    7.09931
     362      444        3     0.00000   15.53560   33.00588    6.04269
     363      444        3     0.00000   14.59940   26.20812   12.61369
     364      444        3     0.00000   15.53560   36.07712    6.04269
     365      444        3     0.00000    2.38067   36.07909    0.24050
     366      444        3     0.00000    7.66434   26.21009    6.81150
     367      444        3     0.00000    2.38067   33.00391    0.24050
     368      444        3     0.00000    7.66434   23.13491    6.81150
     369      444        3     0.00000   12.42567   33.00391    6.33050
     370      444        3     0.00000   12.42567   36.07909    6.33050
     371      444        3     0.00000    1.31991   37.09560   10.62794
     372      444        3     0.00000    8.72509   27.22660    4.05694
     373      444        3     0.00000    1.31991   31.98740   10.62794
     374      444        3     0.00000    8.72509   22.11840    4.05694
     375      444        3     0.00000   11.36491   31.98740    9.08506
     376      444        3     0.00000   18.77009   27.22660    2.51406
     377      444        3     0.00000   11.36491   37.09560    9.08506
     378      444        3     0.00000    3.91152   36.09685    9.32031
     379      444        3     0.00000    6.13348   26.22785    2.74931
     380      444        3     0.00000    3.91152   32.98615    9.32031
     381      444        3     0.00000    6.13348   23.11715    2.74931
     382      444        3     0.00000   13.95652   32.98615   10.39269
     383      444        3     0.00000   16.17848   26.22785    3.82169
     384      444        3     0.00000   13.95652   36.09685   10.39269
     385      444        3     0.00000    8.46593   21.14137   22.20735
     386      444        3     0.00000    1.57907   31.01037   15.63635
     387      444        3     0.00000    8.46593   28.20363   22.20735