Created on Thu Dec 12 11:51:14 2024 

        3384 atoms
        4448 bonds
        8812 angles
       12964 dihedrals

           5 atom types
           7 bond types
          16 angle types
           4 dihedral types
           0.000000  40.180000 xlo xhi
           0.000000  39.476000 ylo yhi
           0.000000  39.426000 zlo zhi
           0.000000   0.000000   0.000000 xy xz yz

Masses

    1    15.999400000 # O_2
    2    15.999400000 # O_3
    3    28.085500000 # Si3
    4    26.981538600 # Al3
    5     1.007940000 # H_

Bond Coeffs

    1      365.702108        1.692864  # O_2 Si3
    2      230.046933        1.811988  # O_2 Al3
    3      351.182859        1.715879  # O_3 Si3
    4      559.995206        0.990254  # O_3 H_
    5      172.712984        1.470529  # Si3 H_
    6      221.565563        1.834820  # O_3 Al3
    7      103.990354        1.597155  # Al3 H_

Angle Coeffs

    1              cosine/periodic       88.853997              -1               3 # Si3 O_2 Si3
    2              cosine/periodic       61.696522              -1               3 # Al3 O_2 Si3
    3                      fourier      131.621514        0.300235        0.267331        0.266745 # Si3 O_3 H_
    4                      fourier      221.735285        0.343737        0.374972        0.281246 # O_2 Si3 O_2
    5                      fourier      217.255565        0.343737        0.374972        0.281246 # O_2 Si3 O_3
    6                      fourier      180.815225        0.343737        0.374972        0.281246 # O_2 Al3 O_2
    7                      fourier      212.931864        0.343737        0.374972        0.281246 # O_3 Si3 O_3
    8                      fourier       81.435257        0.343737        0.374972        0.281246 # O_3 Si3 H_
    9                      fourier       83.380072        0.343737        0.374972        0.281246 # O_2 Si3 H_
   10                      fourier       85.906433        0.300235        0.267331        0.266745 # Al3 O_3 H_
   11                      fourier      177.427303        0.343737        0.374972        0.281246 # O_3 Al3 O_2
   12                      fourier      174.148930        0.343737        0.374972        0.281246 # O_3 Al3 O_3
   13                      fourier       65.314064        0.343737        0.374972        0.281246 # O_3 Al3 H_
   14                      fourier       66.738170        0.343737        0.374972        0.281246 # O_2 Al3 H_
   15              cosine/periodic      119.062103               1               1 # O_3 H_ Si3
   16              cosine/periodic       79.010873               1               1 # O_3 H_ Al3

Dihedral Coeffs

    1        0.333333               1               3 # Si3 O_2 Si3 O_2
    2        0.260875               1               2 # H_ O_3 Si3 O_2
    3        0.250000               1               3 # Si3 O_2 Si3 O_3
    4        0.195656               1               2 # H_ O_3 Si3 O_3

Pair Coeffs

    1        0.060000        3.118146 # O_2 O_2
    2        0.060000        3.118146 # O_3 O_3
    3        0.402000        3.826410 # Si3 Si3
    4        0.505000        4.008153 # Al3 Al3
    5        0.044000        2.571134 # H_ H_

Atoms

       1      444        1     0.00000   10.06911    1.37969    9.22292
       2      444        1     0.00000   20.06589   11.24869    2.65219
       3      444        1     0.00000   10.06911    8.48931    9.22292
       4      444        1     0.00000   10.02089   18.35831    3.91894
       5      444        1     0.00000    0.02411    8.48931   10.49008
       6      444        1     0.00000   10.02089   11.24869    3.91894
       7      444        1     0.00000    0.02411    1.37969   10.49008
       8      444        1     0.00000    7.78488    1.46653   10.52398
       9      444        1     0.00000    2.26013   11.33553    3.95325
      10      444        1     0.00000    7.78488    8.40247   10.52398
      11      444        1     0.00000    2.26013   18.27147    3.95325
      12      444        1     0.00000   12.30513   18.27147    2.61789
      13      444        1     0.00000   17.82987    8.40247    9.18902
      14      444        1     0.00000   12.30513   11.33553    2.61789
      15      444        1     0.00000   17.82987    1.46653    9.18902
      16      444        1     0.00000    8.02595    2.69621    8.21520
      17      444        1     0.00000    2.01905   12.56521    1.64406
      18      444        1     0.00000    8.02595    7.17279    8.21520
      19      444        1     0.00000    2.01905   17.04179    1.64406
      20      444        1     0.00000   12.06405   17.04179    4.92707
      21      444        1     0.00000   18.07095    7.17279   11.49780
      22      444        1     0.00000   12.06405   12.56521    4.92707
      23      444        1     0.00000   18.07095    2.69621   11.49780
      24      444        1     0.00000    7.97975    0.06711    8.31376
      25      444        1     0.00000    2.06525    9.93611    1.74263
      26      444        1     0.00000    7.97975    9.80189    8.31376
      27      444        1     0.00000    2.06525   19.67089    1.74263
      28      444        1     0.00000   12.11025   19.67089    4.82850
      29      444        1     0.00000   18.02475    9.80189   11.39924
      30      444        1     0.00000   12.11025    9.93611    4.82850
      31      444        1     0.00000   18.02475    0.06711   11.39924
      32      444        1     0.00000    6.60961    0.75991   12.77678
      33      444        1     0.00000    3.43539   10.62891    6.20565
      34      444        1     0.00000    6.60961    9.10909   12.77678
      35      444        1     0.00000    3.43539   18.97809    6.20565
      36      444        1     0.00000   13.48039   18.97809    0.36548
      37      444        1     0.00000   16.65461    9.10909    6.93622
      38      444        1     0.00000   13.48039   10.62891    0.36548
      39      444        1     0.00000   16.65461    0.75991    6.93622
      40      444        1     0.00000    6.62367   18.85966   10.71717
      41      444        1     0.00000    3.42133    8.99066    4.14643
      42      444        1     0.00000    6.62367   10.74734   10.71717
      43      444        1     0.00000    3.42133    0.87834    4.14643
      44      444        1     0.00000   13.46633    0.87834    2.42470
      45      444        1     0.00000   16.66867   10.74734    8.99583
      46      444        1     0.00000   13.46633    8.99066    2.42470
      47      444        1     0.00000    5.16514    1.30863   10.65291
      48      444        1     0.00000    4.87986   11.17763    4.08177
      49      444        1     0.00000    5.16514    8.56037   10.65291
      50      444        1     0.00000    4.87986   18.42937    4.08177
      51      444        2     0.00000   14.92486   18.42937    2.48896
      52      444        1     0.00000   15.21014    8.56037    9.06009
      53      444        1     0.00000   14.92486   11.17763    2.48896
      54      444        1     0.00000   15.21014    1.30863    9.06009
      55      444        1     0.00000    5.84619    2.55804    1.39292
      56      444        1     0.00000    4.19881   12.42704    7.96405
      57      444        1     0.00000    5.84619    7.31096    1.39292
      58      444        1     0.00000    4.19881   17.17996    7.96405
      59      444        1     0.00000   14.24381   17.17996   11.74895
      60      444        1     0.00000   15.89119    7.31096    5.17782
      61      444        1     0.00000   14.24381   12.42704   11.74895
      62      444        1     0.00000   15.89119    2.55804    5.17782
      63      444        1     0.00000    4.08631    0.89808    0.36154
      64      444        1     0.00000    5.95869   10.76708    6.93227
      65      444        1     0.00000    4.08631    8.97092    0.36154
      66      444        1     0.00000    5.95869   18.83992    6.93227
      67      444        2     0.00000   16.00369   18.83992   12.78073
      68      444        1     0.00000   14.13131    8.97092    6.20960
      69      444        1     0.00000   16.00369   10.76708   12.78073
      70      444        1     0.00000   14.13131    0.89808    6.20960
      71      444        1     0.00000    5.89842    0.01974    2.05528
      72      444        1     0.00000    4.14658    9.88874    8.62641
      73      444        1     0.00000    5.89842    9.84926    2.05528
      74      444        1     0.00000    4.14658   19.71826    8.62641
      75      444        1     0.00000   14.19158   19.71826   11.08659
      76      444        1     0.00000   15.94342    9.84926    4.51546
      77      444        1     0.00000   14.19158    9.88874   11.08659
      78      444        1     0.00000   15.94342    0.01974    4.51546
      79      444        1     0.00000    2.15968    2.49686    1.16031
      80      444        1     0.00000    7.88533   12.36586    7.73144
      81      444        1     0.00000    2.15968    7.37214    1.16031
      82      444        1     0.00000    7.88533   17.24114    7.73144
      83      444        1     0.00000   12.20467    7.37214    5.41043
      84      444        1     0.00000   17.93032   12.36586   11.98156
      85      444        1     0.00000   12.20467    2.49686    5.41043
      86      444        1     0.00000    1.69961    0.73031   12.41012
      87      444        1     0.00000    8.34539   10.59931    5.83899
      88      444        1     0.00000    1.69961    9.13869   12.41012
      89      444        1     0.00000    8.34539   19.00769    5.83899
      90      444        1     0.00000   11.74461    9.13869    7.30288
      91      444        1     0.00000   18.39039   10.59931    0.73214
      92      444        1     0.00000   11.74461    0.73031    7.30288
      93      444        1     0.00000    2.61371    1.54154   10.08005
      94      444        1     0.00000    7.43129   11.41054    3.50891
      95      444        1     0.00000    2.61371    8.32746   10.08005
      96      444        1     0.00000    7.43129   18.19646    3.50891
      97      444        1     0.00000   12.65871    8.32746    9.63295
      98      444        1     0.00000   17.47629   11.41054    3.06222
      99      444        1     0.00000   12.65871    1.54154    9.63295
     100      444        1     0.00000    1.46255   18.92677   10.29295
     101      444        1     0.00000    8.58245    9.05777    3.72181
     102      444        1     0.00000    1.46255   10.68023   10.29295
     103      444        1     0.00000    8.58245    0.81123    3.72181
     104      444        1     0.00000   18.62745    0.81123    2.84932
     105      444        1     0.00000   11.50755   10.68023    9.42005
     106      444        1     0.00000   18.62745    9.05777    2.84932
     107      444        1     0.00000   11.50755   18.92677    9.42005
     108      444        1     0.00000    4.42181    2.59160    8.48448
     109      444        1     0.00000    5.62319   12.46060    1.91334
     110      444        1     0.00000    4.42181    7.27740    8.48448
     111      444        1     0.00000    5.62319   17.14640    1.91334
     112      444        2     0.00000   15.66819   17.14640    4.65739
     113      444        1     0.00000   14.46681    7.27740   11.22852
     114      444        1     0.00000   15.66819   12.46060    4.65739
     115      444        1     0.00000   14.46681    2.59160   11.22852
     116      444        1     0.00000    9.86620   16.87204    9.42163
     117      444        1     0.00000    0.17880    7.00304    2.85050
     118      444        1     0.00000    9.86620   12.73496    9.42163
     119      444        1     0.00000    0.17880    2.86596    2.85050
     120      444        1     0.00000   10.22380    2.86596    3.72063
     121      444        1     0.00000   19.91120   12.73496   10.29137
     122      444        1     0.00000   10.22380    7.00304    3.72063
     123      444        1     0.00000    7.39513   16.40425   10.17585
     124      444        1     0.00000    2.64987    6.53525    3.60472
     125      444        1     0.00000    7.39513   13.20275   10.17585
     126      444        1     0.00000    2.64987    3.33375    3.60472
     127      444        1     0.00000   12.69487    3.33375    2.96602
     128      444        1     0.00000   17.44013   13.20275    9.53715
     129      444        1     0.00000   12.69487    6.53525    2.96602
     130      444        1     0.00000    8.56437   14.80350    8.45175
     131      444        1     0.00000    1.48063    4.93450    1.88062
     132      444        1     0.00000   11.52563    4.93450    4.69051
     133      444        2     0.00000   18.60937   14.80350   11.26125
     134      444        1     0.00000    6.46295   16.99639   12.56507
     135      444        1     0.00000    3.58205    7.12739    5.99393
     136      444        1     0.00000    6.46295   12.61061   12.56507
     137      444        1     0.00000    3.58205    2.74161    5.99393
     138      444        1     0.00000   13.62705    2.74161    0.57680
     139      444        1     0.00000   16.50795   12.61061    7.14793
     140      444        1     0.00000   13.62705    7.12739    0.57680
     141      444        2     0.00000   16.50795   16.99639    7.14793
     142      444        1     0.00000    4.84169   16.93915   10.50033
     143      444        1     0.00000    5.20331    7.07015    3.92959
     144      444        1     0.00000    4.84169   12.66785   10.50033
     145      444        1     0.00000    5.20331    2.79885    3.92959
     146      444        1     0.00000   15.24831    2.79885    2.64154
     147      444        1     0.00000   14.88669   12.66785    9.21267
     148      444        1     0.00000   15.24831    7.07015    2.64154
     149      444        2     0.00000   14.88669   16.93915    9.21267
     150      444        1     0.00000    5.91249   14.80350    0.76092
     151      444        1     0.00000    4.13251    4.93450    7.33205
     152      444        1     0.00000   14.17751    4.93450   12.38095
     153      444        1     0.00000   15.95749   14.80350    5.81021
     154      444        1     0.00000    3.96978   16.40820    0.00394
     155      444        1     0.00000    6.07522    6.53920    6.57507
     156      444        1     0.00000    3.96978   13.19880    0.00394
     157      444        1     0.00000    6.07522    3.32980    6.57507
     158      444        1     0.00000   16.12022    3.32980   13.13793
     159      444        1     0.00000   14.01478   13.19880    6.56719
     160      444        1     0.00000   16.12022    6.53920   13.13793
     161      444        1     0.00000   14.01478   16.40820    6.56719
     162      444        1     0.00000    1.90453   14.80350    0.26928
     163      444        1     0.00000    8.14047    4.93450    6.84041
     164      444        1     0.00000   18.18547    4.93450   12.87259
     165      444        1     0.00000   11.94953   14.80350    6.30146
     166      444        1     0.00000    1.62528   17.11285   12.18934
     167      444        1     0.00000    8.41972    7.24385    5.61820
     168      444        1     0.00000    1.62528   12.49415   12.18934
     169      444        1     0.00000    8.41972    2.62515    5.61820
     170      444        1     0.00000   18.46472    2.62515    0.95293
     171      444        1     0.00000   11.67028   12.49415    7.52366
     172      444        1     0.00000   18.46472    7.24385    0.95293
     173      444        1     0.00000   11.67028   17.11285    7.52366
     174      444        1     0.00000    2.36459   16.52071    9.73310
     175      444        1     0.00000    7.68041    6.65171    3.16197
     176      444        1     0.00000    2.36459   13.08629    9.73310
     177      444        1     0.00000    7.68041    3.21729    3.16197
     178      444        1     0.00000   17.72541    3.21729    3.40917
     179      444        1     0.00000   12.40959   13.08629    9.97990
     180      444        1     0.00000   17.72541    6.65171    3.40917
     181      444        1     0.00000   12.40959   16.52071    9.97990
     182      444        1     0.00000    4.25104   14.80350    9.08493
     183      444        1     0.00000    5.79396    4.93450    2.51420
     184      444        1     0.00000   15.83896    4.93450    4.05694
     185      444        1     0.00000   14.29604   14.80350   10.62807
     186      444        3     0.00000    8.46593    1.40337    9.06522
     187      444        3     0.00000    1.57907   11.27237    2.49448
     188      444        3     0.00000    8.46593    8.46563    9.06522
     189      444        3     0.00000    1.57907   18.33463    2.49448
     190      444        3     0.00000   11.62407   18.33463    4.07665
     191      444        3     0.00000   18.51093    8.46563   10.64778
     192      444        3     0.00000   11.62407   11.27237    4.07665
     193      444        3     0.00000   18.51093    1.40337   10.64778
     194      444        3     0.00000    6.54733    0.66320   11.17057
     195      444        3     0.00000    3.49767   10.53220    4.59983
     196      444        3     0.00000    6.54733    9.20580   11.17057
     197      444        3     0.00000    3.49767   19.07480    4.59983
     198      444        3     0.00000   13.54267   19.07480    1.97130
     199      444        3     0.00000   16.59233    9.20580    8.54243
     200      444        3     0.00000   13.54267   10.53220    1.97130
     201      444        3     0.00000   16.59233    0.66320    8.54243
     202      444        3     0.00000    5.60913    1.05796    0.86067
     203      444        3     0.00000    4.43587   10.92696    7.43180
     204      444        3     0.00000    5.60913    8.81104    0.86067
     205      444        3     0.00000    4.43587   18.68004    7.43180
     206      444        3     0.00000   14.48087   18.68004   12.28120
     207      444        3     0.00000   15.65413    8.81104    5.71007
     208      444        3     0.00000   14.48087   10.92696   12.28120
     209      444        3     0.00000   15.65413    1.05796    5.71007
     210      444        3     0.00000    2.50321    1.01453    0.63200
     211      444        3     0.00000    7.54179   10.88353    7.20313
     212      444        3     0.00000    2.50321    8.85447    0.63200
     213      444        3     0.00000    7.54179   18.72347    7.20313
     214      444        3     0.00000   12.54821    8.85447    5.93874
     215      444        3     0.00000   17.58679   10.88353   12.50987
     216      444        3     0.00000   12.54821    1.01453    5.93874
     217      444        3     0.00000    1.44849    0.71057   10.81968
     218      444        3     0.00000    8.59651   10.57957    4.24894
     219      444        3     0.00000    1.44849    9.15843   10.81968
     220      444        3     0.00000    8.59651   19.02743    4.24894
     221      444        3     0.00000   11.49349    9.15843    8.89332
     222      444        3     0.00000   18.64151   10.57957    2.32219
     223      444        3     0.00000   11.49349    0.71057    8.89332
     224      444        3     0.00000    4.08631    1.35600    9.45830
     225      444        3     0.00000    5.95869   11.22500    2.88717
     226      444        3     0.00000    4.08631    8.51300    9.45830
     227      444        3     0.00000    5.95869   18.38200    2.88717
     228      444        3     0.00000   14.13131    8.51300   10.25470
     229      444        3     0.00000   16.00369   11.22500    3.68357
     230      444        3     0.00000   14.13131    1.35600   10.25470
     231      444        3     0.00000    8.42776   16.33122    8.94300
     232      444        3     0.00000    1.61725    6.46222    2.37226
     233      444        3     0.00000    8.42775   13.27578    8.94300
     234      444        3     0.00000    1.61725    3.40678    2.37226
     235      444        3     0.00000   11.66225    3.40678    4.19887
     236      444        3     0.00000   18.47275   13.27578   10.77000
     237      444        3     0.00000   11.66225    6.46222    4.19887
     238      444        4     0.00000    6.33237   17.30036   10.98803
     239      444        3     0.00000    3.71263    7.43136    4.41689
     240      444        3     0.00000    6.33237   12.30664   10.98803
     241      444        3     0.00000    3.71263    2.43764    4.41689
     242      444        3     0.00000   13.75763    2.43764    2.15384
     243      444        3     0.00000   16.37737   12.30664    8.72497
     244      444        3     0.00000   13.75763    7.43136    2.15384
     245      444        3     0.00000    5.49060   16.33912    0.52831
     246      444        3     0.00000    4.55440    6.47012    7.09944
     247      444        3     0.00000    5.49060   13.26788    0.52831
     248      444        3     0.00000    4.55440    3.39888    7.09944
     249      444        3     0.00000   14.59940    3.39888   12.61356
     250      444        3     0.00000   15.53560   13.26788    6.04282
     251      444        3     0.00000   14.59940    6.47012   12.61356
     252      444        3     0.00000   15.53560   16.33912    6.04282
     253      444        3     0.00000    2.38067   16.34109    0.24050
     254      444        3     0.00000    7.66434    6.47209    6.81163
     255      444        3     0.00000    2.38067   13.26591    0.24050
     256      444        3     0.00000    7.66434    3.39691    6.81163
     257      444        3     0.00000   17.70933    3.39691   12.90137
     258      444        3     0.00000   12.42567   13.26591    6.33063
     259      444        3     0.00000   17.70933    6.47209   12.90137
     260      444        3     0.00000   12.42567   16.34109    6.33063
     261      444        3     0.00000    1.31991   17.35760   10.62807
     262      444        3     0.00000    8.72509    7.48860    4.05694
     263      444        3     0.00000    1.31991   12.24940   10.62807
     264      444        3     0.00000    8.72509    2.38040    4.05694
     265      444        3     0.00000   18.77009    2.38040    2.51420
     266      444        3     0.00000   11.36491   12.24940    9.08493
     267      444        3     0.00000   18.77009    7.48860    2.51420
     268      444        3     0.00000   11.36491   17.35760    9.08493
     269      444        3     0.00000    3.91152   16.35885    9.32031
     270      444        3     0.00000    6.13348    6.48985    2.74917
     271      444        3     0.00000    3.91152   13.24815    9.32031
     272      444        3     0.00000    6.13348    3.37915    2.74917
     273      444        3     0.00000   16.17848    3.37915    3.82156
     274      444        3     0.00000   13.95652   13.24815   10.39269
     275      444        3     0.00000   16.17848    6.48985    3.82156
     276      444        3     0.00000   13.95652   16.35885   10.39269
     277      444        1     0.00000   10.06911    1.37969   22.36519
     278      444        1     0.00000   20.06589   11.24869   15.79406
     279      444        1     0.00000   10.06911    8.48931   22.36519
     280      444        1     0.00000   10.02089   18.35831   17.06081
     281      444        1     0.00000    0.02411    8.48931   23.63194
     282      444        1     0.00000   10.02089   11.24869   17.06081
     283      444        1     0.00000    0.02411    1.37969   23.63194
     284      444        1     0.00000    7.78488    1.46653   23.66625
     285      444        1     0.00000    2.26013   11.33553   17.09511
     286      444        1     0.00000    7.78488    8.40247   23.66625
     287      444        1     0.00000    2.26013   18.27147   17.09511
     288      444        1     0.00000   12.30513   18.27147   15.75975
     289      444        1     0.00000   17.82987    8.40247   22.33089
     290      444        1     0.00000   12.30513   11.33553   15.75975
     291      444        1     0.00000   17.82987    1.46653   22.33089
     292      444        1     0.00000    8.02596    2.69621   21.35706
     293      444        1     0.00000    2.01905   12.56521   14.78593
     294      444        1     0.00000    8.02596    7.17279   21.35706
     295      444        1     0.00000    2.01905   17.04179   14.78593
     296      444        1     0.00000   12.06405   17.04179   18.06894
     297      444        1     0.00000   18.07095    7.17279   24.64007
     298      444        1     0.00000   12.06405   12.56521   18.06894
     299      444        1     0.00000   18.07095    2.69621   24.64007
     300      444        1     0.00000    7.97975    0.06711   21.45563
     301      444        1     0.00000    2.06525    9.93611   14.88450
     302      444        1     0.00000    7.97975    9.80189   21.45563
     303      444        1     0.00000    2.06525   19.67089   14.88450
     304      444        1     0.00000   12.11025   19.67089   17.97037
     305      444        1     0.00000   18.02475    9.80189   24.54150
     306      444        1     0.00000   12.11025    9.93611   17.97037
     307      444        1     0.00000   18.02475    0.06711   24.54150
     308      444        1     0.00000    6.60961    0.75991   25.91865
     309      444        1     0.00000    3.43539   10.62891   19.34752
     310      444        1     0.00000    6.60961    9.10909   25.91865
     311      444        1     0.00000    3.43539   18.97809   19.34752
     312      444        1     0.00000   13.48039   18.97809   13.50735
     313      444        1     0.00000   16.65461    9.10909   20.07848
     314      444        1     0.00000   13.48039   10.62891   13.50735
     315      444        1     0.00000   16.65461    0.75991   20.07848
     316      444        1     0.00000    6.62367   18.85966   23.85943
     317      444        1     0.00000    3.42133    8.99066   17.28830
     318      444        1     0.00000    6.62367   10.74734   23.85943
     319      444        1     0.00000    3.42133    0.87834   17.28830
     320      444        1     0.00000   13.46633    0.87834   15.56657
     321      444        1     0.00000   16.66867   10.74734   22.13770
     322      444        1     0.00000   13.46633    8.99066   15.56657
     323      444        1     0.00000    5.16514    1.30863   23.79477
     324      444        1     0.00000    4.87986   11.17763   17.22404
     325      444        1     0.00000    5.16514    8.56037   23.79477
     326      444        1     0.00000    4.87986   18.42937   17.22404
     327      444        2     0.00000   14.92486   18.42937   15.63123
     328      444        1     0.00000   15.21014    8.56037   22.20196
     329      444        1     0.00000   14.92486   11.17763   15.63123
     330      444        1     0.00000   15.21014    1.30863   22.20196
     331      444        1     0.00000    5.84619    2.55804   14.53518
     332      444        1     0.00000    4.19881   12.42704   21.10592
     333      444        1     0.00000    5.84619    7.31096   14.53518
     334      444        1     0.00000    4.19881   17.17996   21.10592
     335      444        1     0.00000   14.24381   17.17996   24.89082
     336      444        1     0.00000   15.89119    7.31096   18.32008
     337      444        1     0.00000   14.24381   12.42704   24.89082
     338      444        1     0.00000   15.89119    2.55804   18.32008
     339      444        1     0.00000    4.08631    0.89808   13.50341
     340      444        1     0.00000    5.95869   10.76708   20.07454
     341      444        1     0.00000    4.08631    8.97092   13.50341
     342      444        1     0.00000    5.95869   18.83992   20.07454
     343      444        2     0.00000   16.00369   18.83992   25.92260
     344      444        1     0.00000   14.13131    8.97092   19.35146
     345      444        1     0.00000   16.00369   10.76708   25.92260
     346      444        1     0.00000   14.13131    0.89808   19.35146
     347      444        1     0.00000    5.89842    0.01974   15.19754
     348      444        1     0.00000    4.14658    9.88874   21.76828
     349      444        1     0.00000    5.89842    9.84926   15.19754
     350      444        1     0.00000    4.14658   19.71826   21.76828
     351      444        1     0.00000   14.19158   19.71826   24.22846
     352      444        1     0.00000   15.94342    9.84926   17.65772
     353      444        1     0.00000   14.19158    9.88874   24.22846
     354      444        1     0.00000   15.94342    0.01974   17.65772
     355      444        1     0.00000    2.15968    2.49686   14.30257
     356      444        1     0.00000    7.88533   12.36586   20.87331
     357      444        1     0.00000    2.15968    7.37214   14.30257
     358      444        1     0.00000    7.88533   17.24114   20.87331
     359      444        1     0.00000   12.20468    7.37214   18.55269
     360      444        1     0.00000   17.93032   12.36586   25.12343
     361      444        1     0.00000   12.20468    2.49686   18.55269
     362      444        1     0.00000    1.69961    0.73031   25.55199
     363      444        1     0.00000    8.34539   10.59931   18.98086
     364      444        1     0.00000    1.69961    9.13869   25.55199
     365      444        1     0.00000    8.34539   19.00769   18.98086
     366      444        1     0.00000   11.74461    9.13869   20.44514
     367      444        1     0.00000   18.39039   10.59931   13.87401
     368      444        1     0.00000   11.74461    0.73031   20.44514
     369      444        1     0.00000    2.61371    1.54154   23.22191
     370      444        1     0.00000    7.43129   11.41054   16.65078
     371      444        1     0.00000    2.61371    8.32746   23.22191
     372      444        1     0.00000    7.43129   18.19646   16.65078