Created on Thu Dec 12 11:34:10 2024 

        5454 atoms
        7000 bonds
       13598 angles
       19792 dihedrals

           5 atom types
           6 bond types
          12 angle types
           4 dihedral types
           0.000000  60.270000 xlo xhi
           0.000000  59.214000 ylo yhi
           0.000000  39.426000 zlo zhi
           0.000000   0.000000   0.000000 xy xz yz

Masses

    1    15.999400000 # O_2
    2    15.999400000 # O_3
    3    28.085500000 # Si3
    4    26.981538600 # Al3
    5     1.007940000 # H_

Bond Coeffs

    1      365.702108        1.692864  # O_2 Si3
    2      351.182859        1.715879  # O_3 Si3
    3      559.995206        0.990254  # O_3 H_
    4      230.046933        1.811988  # O_2 Al3
    5      221.565563        1.834820  # O_3 Al3
    6      172.712984        1.470529  # Si3 H_

Angle Coeffs

    1              cosine/periodic       88.853997              -1               3 # Si3 O_2 Si3
    2                      fourier      131.621514        0.300235        0.267331        0.266745 # Si3 O_3 H_
    3              cosine/periodic       61.696522              -1               3 # Si3 O_2 Al3
    4                      fourier      221.735285        0.343737        0.374972        0.281246 # O_2 Si3 O_2
    5                      fourier      217.255565        0.343737        0.374972        0.281246 # O_2 Si3 O_3
    6                      fourier      212.931864        0.343737        0.374972        0.281246 # O_3 Si3 O_3
    7                      fourier      180.815225        0.343737        0.374972        0.281246 # O_2 Al3 O_2
    8                      fourier       85.906433        0.300235        0.267331        0.266745 # Al3 O_3 H_
    9                      fourier      177.427303        0.343737        0.374972        0.281246 # O_2 Al3 O_3
   10                      fourier       83.380072        0.343737        0.374972        0.281246 # O_2 Si3 H_
   11                      fourier       81.435257        0.343737        0.374972        0.281246 # O_3 Si3 H_
   12              cosine/periodic      119.062103               1               1 # O_3 H_ Si3

Dihedral Coeffs

    1        0.333333               1               3 # Si3 O_2 Si3 O_2
    2        0.260875               1               2 # H_ O_3 Si3 O_2
    3        0.250000               1               3 # Si3 O_2 Si3 O_2
    4        0.195656               1               2 # H_ O_3 Si3 O_2

Pair Coeffs

    1        0.060000        3.118146 # O_2 O_2
    2        0.060000        3.118146 # O_3 O_3
    3        0.402000        3.826410 # Si3 Si3
    4        0.505000        4.008153 # Al3 Al3
    5        0.044000        2.571134 # H_ H_

Atoms

       1      444        1     0.00000   10.06931    1.37969    9.22292
       2      444        1     0.00000   20.06569   11.24888    2.65219
       3      444        1     0.00000   10.06931    8.48951    9.22292
       4      444        1     0.00000   10.02109   18.35812    3.91894
       5      444        1     0.00000    0.02411    8.48951   10.49008
       6      444        1     0.00000   10.02109   11.24888    3.91894
       7      444        1     0.00000    0.02411    1.37969   10.49008
       8      444        1     0.00000    7.78508    1.46673   10.52398
       9      444        1     0.00000    2.26013   11.33534    3.95325
      10      444        1     0.00000    7.78508    8.40247   10.52398
      11      444        1     0.00000    2.26013   18.27166    3.95325
      12      444        2     0.00000   12.30533   18.27166    2.61789
      13      444        1     0.00000   17.82967    8.40247    9.18902
      14      444        1     0.00000   12.30533   11.33534    2.61789
      15      444        1     0.00000   17.82967    1.46673    9.18902
      16      444        1     0.00000    8.02616    2.69601    8.21520
      17      444        1     0.00000    2.01905   12.56521    1.64406
      18      444        1     0.00000    8.02616    7.17259    8.21520
      19      444        1     0.00000    2.01905   17.04179    1.64406
      20      444        1     0.00000   12.06425   17.04179    4.92707
      21      444        1     0.00000   18.07075    7.17259   11.49780
      22      444        1     0.00000   12.06425   12.56521    4.92707
      23      444        1     0.00000   18.07075    2.69601   11.49780
      24      444        1     0.00000    7.97975    0.06691    8.31376
      25      444        1     0.00000    2.06545    9.93611    1.74263
      26      444        1     0.00000    7.97975    9.80169    8.31376
      27      444        1     0.00000    2.06545   19.67089    1.74263
      28      444        2     0.00000   12.11005   19.67089    4.82850
      29      444        1     0.00000   18.02495    9.80169   11.39924
      30      444        1     0.00000   12.11005    9.93611    4.82850
      31      444        1     0.00000   18.02495    0.06691   11.39924
      32      444        1     0.00000    6.60981    0.75972   12.77678
      33      444        1     0.00000    3.43539   10.62891    6.20565
      34      444        1     0.00000    6.60981    9.10889   12.77678
      35      444        1     0.00000    3.43539   18.97809    6.20565
      36      444        1     0.00000   16.65441    9.10889    6.93622
      37      444        1     0.00000   13.48059   10.62891    0.36548
      38      444        1     0.00000   16.65441    0.75972    6.93622
      39      444        1     0.00000    6.62367   18.85966   10.71717
      40      444        1     0.00000    3.42153    8.99046    4.14643
      41      444        1     0.00000    6.62367   10.74734   10.71717
      42      444        1     0.00000    3.42153    0.87814    4.14643
      43      444        1     0.00000   13.46613    0.87814    2.42470
      44      444        1     0.00000   16.66887   10.74734    8.99583
      45      444        1     0.00000   13.46613    8.99046    2.42470
      46      444        1     0.00000    5.16514    1.30863   10.65291
      47      444        1     0.00000    4.88006   11.17783    4.08177
      48      444        1     0.00000    5.16514    8.56057   10.65291
      49      444        1     0.00000    4.88006   18.42917    4.08177
      50      444        1     0.00000   15.21034    8.56057    9.06009
      51      444        1     0.00000   14.92466   11.17783    2.48896
      52      444        1     0.00000   15.21034    1.30863    9.06009
      53      444        1     0.00000    5.84619    2.55804    1.39292
      54      444        1     0.00000    4.19901   12.42724    7.96405
      55      444        1     0.00000    5.84619    7.31115    1.39292
      56      444        1     0.00000    4.19901   17.17976    7.96405
      57      444        2     0.00000   14.24361   17.17976   11.74895
      58      444        1     0.00000   15.89139    7.31115    5.17782
      59      444        1     0.00000   14.24361   12.42724   11.74895
      60      444        1     0.00000   15.89139    2.55804    5.17782
      61      444        1     0.00000    4.08631    0.89828    0.36154
      62      444        1     0.00000    5.95889   10.76688    6.93227
      63      444        1     0.00000    4.08631    8.97092    0.36154
      64      444        1     0.00000    5.95889   18.84012    6.93227
      65      444        1     0.00000   14.13151    8.97092    6.20960
      66      444        1     0.00000   16.00349   10.76688   12.78073
      67      444        1     0.00000   14.13151    0.89828    6.20960
      68      444        1     0.00000    5.89862    0.01954    2.05528
      69      444        1     0.00000    4.14658    9.88874    8.62641
      70      444        1     0.00000    5.89862    9.84906    2.05528
      71      444        1     0.00000    4.14658   19.71826    8.62641
      72      444        1     0.00000   15.94322    9.84906    4.51546
      73      444        1     0.00000   14.19178    9.88874   11.08659
      74      444        1     0.00000   15.94322    0.01954    4.51546
      75      444        1     0.00000    2.15947    2.49705    1.16031
      76      444        1     0.00000    7.88512   12.36566    7.73144
      77      444        1     0.00000    2.15947    7.37214    1.16031
      78      444        1     0.00000    7.88512   17.24134    7.73144
      79      444        1     0.00000   12.20468    7.37214    5.41043
      80      444        1     0.00000   17.93032   12.36566   11.98156
      81      444        1     0.00000   12.20468    2.49705    5.41043
      82      444        1     0.00000    1.69961    0.73011   12.41012
      83      444        1     0.00000    8.34559   10.59931    5.83899
      84      444        1     0.00000    1.69961    9.13850   12.41012
      85      444        1     0.00000    8.34559   19.00769    5.83899
      86      444        1     0.00000   11.74481    9.13850    7.30288
      87      444        1     0.00000   18.39019   10.59931    0.73214
      88      444        1     0.00000   11.74481    0.73011    7.30288
      89      444        1     0.00000    2.61391    1.54134   10.08005
      90      444        1     0.00000    7.43129   11.41054    3.50891
      91      444        1     0.00000    2.61391    8.32726   10.08005
      92      444        1     0.00000    7.43129   18.19646    3.50891
      93      444        1     0.00000   12.65851    8.32726    9.63295
      94      444        1     0.00000   17.47649   11.41054    3.06222
      95      444        1     0.00000   12.65851    1.54134    9.63295
      96      444        1     0.00000    1.46275   18.92657   10.29295
      97      444        1     0.00000    8.58245    9.05797    3.72181
      98      444        1     0.00000    1.46275   10.68043   10.29295
      99      444        1     0.00000    8.58245    0.81123    3.72181
     100      444        1     0.00000   18.62765    0.81123    2.84932
     101      444        1     0.00000   11.50735   10.68043    9.42005
     102      444        1     0.00000   18.62765    9.05797    2.84932
     103      444        1     0.00000   11.50735   18.92657    9.42005
     104      444        1     0.00000    4.42201    2.59180    8.48448
     105      444        1     0.00000    5.62319   12.46040    1.91334
     106      444        1     0.00000    4.42201    7.27740    8.48448
     107      444        1     0.00000    5.62319   17.14660    1.91334
     108      444        1     0.00000   14.46661    7.27740   11.22852
     109      444        1     0.00000   15.66839   12.46040    4.65739
     110      444        1     0.00000   14.46661    2.59180   11.22852
     111      444        1     0.00000    9.86620   16.87185    9.42163
     112      444        1     0.00000    0.17900    7.00324    2.85050
     113      444        1     0.00000    9.86620   12.73515    9.42163
     114      444        1     0.00000    0.17900    2.86596    2.85050
     115      444        1     0.00000   10.22360    2.86596    3.72063
     116      444        2     0.00000   19.91140   12.73515   10.29137
     117      444        1     0.00000   10.22360    7.00324    3.72063
     118      444        1     0.00000    7.39513   16.40405   10.17585
     119      444        1     0.00000    2.65007    6.53545    3.60472
     120      444        1     0.00000    7.39513   13.20295   10.17585
     121      444        1     0.00000    2.65007    3.33375    3.60472
     122      444        1     0.00000   12.69467    3.33375    2.96602
     123      444        1     0.00000   17.44033   13.20295    9.53715
     124      444        1     0.00000   12.69467    6.53545    2.96602
     125      444        1     0.00000    8.56437   14.80350    8.45175
     126      444        1     0.00000    1.48083    4.93430    1.88062
     127      444        1     0.00000   11.52543    4.93430    4.69051
     128      444        2     0.00000   18.60957   14.80350   11.26125
     129      444        1     0.00000    6.46275   16.99619   12.56507
     130      444        1     0.00000    3.58185    7.12759    5.99393
     131      444        1     0.00000    6.46275   12.61081   12.56507
     132      444        1     0.00000    3.58185    2.74161    5.99393
     133      444        1     0.00000   13.62705    2.74161    0.57680
     134      444        1     0.00000   16.50795   12.61081    7.14793
     135      444        1     0.00000   13.62705    7.12759    0.57680
     136      444        1     0.00000    4.84149   16.93935   10.50033
     137      444        1     0.00000    5.20311    7.07015    3.92959
     138      444        1     0.00000    4.84149   12.66765   10.50033
     139      444        1     0.00000    5.20311    2.79905    3.92959
     140      444        1     0.00000   15.24831    2.79905    2.64154
     141      444        1     0.00000   14.88669   12.66765    9.21267
     142      444        1     0.00000   15.24831    7.07015    2.64154
     143      444        2     0.00000   14.88669   16.93935    9.21267
     144      444        1     0.00000    5.91249   14.80350    0.76092
     145      444        1     0.00000    4.13271    4.93430    7.33205
     146      444        1     0.00000   14.17731    4.93430   12.38095
     147      444        2     0.00000   15.95769   14.80350    5.81021
     148      444        1     0.00000    3.96998   16.40820    0.00394
     149      444        1     0.00000    6.07522    6.53900    6.57507
     150      444        1     0.00000    3.96998   13.19880    0.00394
     151      444        1     0.00000    6.07522    3.32960    6.57507
     152      444        1     0.00000   16.12042    3.32960   13.13793
     153      444        1     0.00000   14.01458   13.19880    6.56719
     154      444        1     0.00000   16.12042    6.53900   13.13793
     155      444        2     0.00000   14.01458   16.40820    6.56719
     156      444        1     0.00000    1.90453   14.80350    0.26928
     157      444        1     0.00000    8.14067    4.93430    6.84041
     158      444        1     0.00000   18.18527    4.93430   12.87259
     159      444        1     0.00000   11.94973   14.80350    6.30146
     160      444        1     0.00000    1.62548   17.11285   12.18934
     161      444        1     0.00000    8.41972    7.24365    5.61820
     162      444        1     0.00000    1.62548   12.49415   12.18934
     163      444        1     0.00000    8.41972    2.62496    5.61820
     164      444        1     0.00000   18.46492    2.62496    0.95293
     165      444        1     0.00000   11.67008   12.49415    7.52366
     166      444        1     0.00000   18.46492    7.24365    0.95293
     167      444        1     0.00000   11.67008   17.11285    7.52366
     168      444        1     0.00000    2.36439   16.52071    9.73310
     169      444        1     0.00000    7.68021    6.65151    3.16197
     170      444        1     0.00000    2.36439   13.08629    9.73310
     171      444        1     0.00000    7.68021    3.21710    3.16197
     172      444        1     0.00000   17.72541    3.21710    3.40917
     173      444        1     0.00000   12.40959   13.08629    9.97990
     174      444        1     0.00000   17.72541    6.65151    3.40917
     175      444        1     0.00000   12.40959   16.52071    9.97990
     176      444        1     0.00000    4.25084   14.80350    9.08493
     177      444        1     0.00000    5.79376    4.93430    2.51420
     178      444        1     0.00000   15.83896    4.93430    4.05694
     179      444        1     0.00000   14.29604   14.80350   10.62807
     180      444        3     0.00000    8.46613    1.40337    9.06522
     181      444        3     0.00000    1.57907   11.27257    2.49448
     182      444        3     0.00000    8.46613    8.46583    9.06522
     183      444        3     0.00000    1.57907   18.33443    2.49448
     184      444        3     0.00000   11.62427   18.33443    4.07665
     185      444        3     0.00000   18.51073    8.46583   10.64778
     186      444        3     0.00000   11.62427   11.27257    4.07665
     187      444        3     0.00000   18.51073    1.40337   10.64778
     188      444        3     0.00000    6.54713    0.66320   11.17057
     189      444        3     0.00000    3.49747   10.53239    4.59983
     190      444        3     0.00000    6.54713    9.20600   11.17057
     191      444        3     0.00000    3.49747   19.07461    4.59983
     192      444        3     0.00000   16.59233    9.20600    8.54243
     193      444        3     0.00000   13.54267   10.53239    1.97130
     194      444        3     0.00000   16.59233    0.66320    8.54243
     195      444        3     0.00000    5.60933    1.05815    0.86067
     196      444        3     0.00000    4.43587   10.92676    7.43180
     197      444        3     0.00000    5.60933    8.81104    0.86067
     198      444        3     0.00000    4.43587   18.68024    7.43180
     199      444        3     0.00000   15.65393    8.81104    5.71007
     200      444        3     0.00000   14.48107   10.92676   12.28120
     201      444        3     0.00000   15.65393    1.05815    5.71007
     202      444        3     0.00000    2.50301    1.01434    0.63200
     203      444        3     0.00000    7.54159   10.88353    7.20313
     204      444        3     0.00000    2.50301    8.85427    0.63200
     205      444        3     0.00000    7.54159   18.72347    7.20313
     206      444        3     0.00000   12.54821    8.85427    5.93874
     207      444        3     0.00000   17.58679   10.88353   12.50987
     208      444        3     0.00000   12.54821    1.01434    5.93874
     209      444        3     0.00000    1.44829    0.71057   10.81968
     210      444        3     0.00000    8.59631   10.57977    4.24894
     211      444        3     0.00000    1.44829    9.15863   10.81968
     212      444        3     0.00000    8.59631   19.02723    4.24894
     213      444        3     0.00000   11.49349    9.15863    8.89332
     214      444        3     0.00000   18.64151   10.57977    2.32219
     215      444        3     0.00000   11.49349    0.71057    8.89332
     216      444        3     0.00000    4.08631    1.35600    9.45830
     217      444        3     0.00000    5.95889   11.22520    2.88717
     218      444        3     0.00000    4.08631    8.51320    9.45830
     219      444        3     0.00000    5.95889   18.38180    2.88717
     220      444        3     0.00000   14.13151    8.51320   10.25470
     221      444        3     0.00000   16.00349   11.22520    3.68357
     222      444        3     0.00000   14.13151    1.35600   10.25470
     223      444        3     0.00000    8.42755   16.33122    8.94300
     224      444        3     0.00000    1.61704    6.46202    2.37226
     225      444        3     0.00000    8.42755   13.27578    8.94300
     226      444        3     0.00000    1.61704    3.40658    2.37226
     227      444        3     0.00000   11.66225    3.40658    4.19887
     228      444        3     0.00000   18.47275   13.27578   10.77000
     229      444        3     0.00000   11.66225    6.46202    4.19887
     230      444        3     0.00000    6.33257   17.30055   10.98803
     231      444        3     0.00000    3.71263    7.43136    4.41689
     232      444        3     0.00000    6.33257   12.30645   10.98803
     233      444        3     0.00000    3.71263    2.43784    4.41689
     234      444        3     0.00000   13.75783    2.43784    2.15384
     235      444        3     0.00000   16.37717   12.30645    8.72497
     236      444        3     0.00000   13.75783    7.43136    2.15384
     237      444        3     0.00000    5.49060   16.33892    0.52831
     238      444        3     0.00000    4.55460    6.47031    7.09944
     239      444        4     0.00000    5.49060   13.26808    0.52831
     240      444        4     0.00000    4.55460    3.39888    7.09944
     241      444        3     0.00000   14.59920    3.39888   12.61356
     242      444        3     0.00000   15.53580   13.26808    6.04282
     243      444        3     0.00000   14.59920    6.47031   12.61356
     244      444        3     0.00000    2.38067   16.34129    0.24050
     245      444        3     0.00000    7.66454    6.47209    6.81163
     246      444        3     0.00000    2.38067   13.26571    0.24050
     247      444        3     0.00000    7.66454    3.39711    6.81163
     248      444        3     0.00000   17.70913    3.39711   12.90137
     249      444        3     0.00000   12.42587   13.26571    6.33063
     250      444        3     0.00000   17.70913    6.47209   12.90137
     251      444        3     0.00000   12.42587   16.34129    6.33063
     252      444        3     0.00000    1.31991   17.35740   10.62807
     253      444        3     0.00000    8.72529    7.48879    4.05694
     254      444        3     0.00000    1.31991   12.24960   10.62807
     255      444        4     0.00000    8.72529    2.38040    4.05694
     256      444        3     0.00000   18.76989    2.38040    2.51420
     257      444        3     0.00000   11.36511   12.24960    9.08493
     258      444        3     0.00000   18.76989    7.48879    2.51420
     259      444        3     0.00000   11.36511   17.35740    9.08493
     260      444        4     0.00000    3.91152   16.35905    9.32031
     261      444        3     0.00000    6.13368    6.48985    2.74917
     262      444        3     0.00000    3.91152   13.24795    9.32031
     263      444        3     0.00000    6.13368    3.37934    2.74917
     264      444        3     0.00000   16.17828    3.37934    3.82156
     265      444        3     0.00000   13.95672   13.24795   10.39269
     266      444        3     0.00000   16.17828    6.48985    3.82156
     267      444        3     0.00000   13.95672   16.35905   10.39269
     268      444        1     0.00000   10.06931    1.37969   22.36519
     269      444        1     0.00000   20.06569   11.24888   15.79406
     270      444        1     0.00000   10.06931    8.48951   22.36519
     271      444        1     0.00000   10.02109   18.35812   17.06081
     272      444        1     0.00000    0.02411    8.48951   23.63194
     273      444        1     0.00000   10.02109   11.24888   17.06081
     274      444        1     0.00000    0.02411    1.37969   23.63194
     275      444        1     0.00000    7.78508    1.46673   23.66625
     276      444        1     0.00000    2.26013   11.33534   17.09511
     277      444        1     0.00000    7.78508    8.40247   23.66625
     278      444        1     0.00000    2.26013   18.27166   17.09511
     279      444        2     0.00000   12.30533   18.27166   15.75975
     280      444        1     0.00000   17.82967    8.40247   22.33089
     281      444        1     0.00000   12.30533   11.33534   15.75975
     282      444        1     0.00000   17.82967    1.46673   22.33089
     283      444        1     0.00000    8.02616    2.69601   21.35706
     284      444        1     0.00000    2.01905   12.56521   14.78593
     285      444        1     0.00000    8.02616    7.17259   21.35706
     286      444        1     0.00000    2.01905   17.04179   14.78593
     287      444        1     0.00000   12.06425   17.04179   18.06894
     288      444        1     0.00000   18.07075    7.17259   24.64007
     289      444        1     0.00000   12.06425   12.56521   18.06894
     290      444        1     0.00000   18.07075    2.69601   24.64007
     291      444        1     0.00000    7.97975    0.06691   21.45563
     292      444        1     0.00000    2.06545    9.93611   14.88450
     293      444        1     0.00000    7.97975    9.80169   21.45563
     294      444        1     0.00000    2.06545   19.67089   14.88450
     295      444        2     0.00000   12.11005   19.67089   17.97037
     296      444        1     0.00000   18.02495    9.80169   24.54150
     297      444        1     0.00000   12.11005    9.93611   17.97037
     298      444        1     0.00000   18.02495    0.06691   24.54150
     299      444        1     0.00000    6.60981    0.75972   25.91865
     300      444        1     0.00000    3.43539   10.62891   19.34752
     301      444        1     0.00000    6.60981    9.10889   25.91865
     302      444        1     0.00000    3.43539   18.97809   19.34752
     303      444        1     0.00000   16.65441    9.10889   20.07848
     304      444        1     0.00000   13.48059   10.62891   13.50735
     305      444        1     0.00000   16.65441    0.75972   20.07848
     306      444        1     0.00000    6.62367   18.85966   23.85943
     307      444        1     0.00000    3.42153    8.99046   17.28830
     308      444        1     0.00000    6.62367   10.74734   23.85943
     309      444        1     0.00000    3.42153    0.87814   17.28830
     310      444        1     0.00000   13.46613    0.87814   15.56657
     311      444        1     0.00000   16.66887   10.74734   22.13770
     312      444        1     0.00000   13.46613    8.99046   15.56657
     313      444        1     0.00000    5.16514    1.30863   23.79477
     314      444        1     0.00000    4.88006   11.17783   17.22404
     315      444        1     0.00000    5.16514    8.56057   23.79477
     316      444        1     0.00000    4.88006   18.42917   17.22404
     317      444        1     0.00000   15.21034    8.56057   22.20196
     318      444        1     0.00000   14.92466   11.17783   15.63123
     319      444        1     0.00000   15.21034    1.30863   22.20196
     320      444        1     0.00000    5.84619    2.55804   14.53518
     321      444        1     0.00000    4.19901   12.42724   21.10592
     322      444        1     0.00000    5.84619    7.31115   14.53518
     323      444        1     0.00000    4.19901   17.17976   21.10592
     324      444        2     0.00000   14.24361   17.17976   24.89082
     325      444        1     0.00000   15.89139    7.31115   18.32008
     326      444        1     0.00000   14.24361   12.42724   24.89082
     327      444        1     0.00000   15.89139    2.55804   18.32008
     328      444        1     0.00000    4.08631    0.89828   13.50341
     329      444        1     0.00000    5.95889   10.76688   20.07454
     330      444        1     0.00000    4.08631    8.97092   13.50341
     331      444        1     0.00000    5.95889   18.84012   20.07454
     332      444        1     0.00000   14.13151    8.97092   19.35146
     333      444        1     0.00000   16.00349   10.76688   25.92260
     334      444        1     0.00000   14.13151    0.89828   19.35146
     335      444        1     0.00000    5.89862    0.01954   15.19754
     336      444        1     0.00000    4.14658    9.88874   21.76828
     337      444        1     0.00000    5.89862    9.84906   15.19754
     338      444        1     0.00000    4.14658   19.71826   21.76828
     339      444        1     0.00000   15.94322    9.84906   17.65772
     340      444        1     0.00000   14.19178    9.88874   24.22846
     341      444        1     0.00000   15.94322    0.01954   17.65772
     342      444        1     0.00000    2.15947    2.49705   14.30257
     343      444        1     0.00000    7.88512   12.36566   20.87331
     344      444        1     0.00000    2.15947    7.37214   14.30257
     345      444        1     0.00000    7.88512   17.24134   20.87331
     346      444        1     0.00000   12.20468    7.37214   18.55269
     347      444        1     0.00000   17.93032   12.36566   25.12343
     348      444        1     0.00000   12.20468    2.49705   18.55269
     349      444        1     0.00000    1.69961    0.73011   25.55199
     350      444        1     0.00000    8.34559   10.59931   18.98086
     351      444        1     0.00000    1.69961    9.13850   25.55199
     352      444        1     0.00000    8.34559   19.00769   18.98086
     353      444        1     0.00000   11.74481    9.13850   20.44514
     354      444        1     0.00000   18.39019   10.59931   13.87401
     355      444        1     0.00000   11.74481    0.73011   20.44514
     356      444        1     0.00000    2.61391    1.54134   23.22191
     357      444        1     0.00000    7.43129   11.41054   16.65078
     358      444        1     0.00000    2.61391    8.32726   23.22191
     359      444        1     0.00000    7.43129   18.19646   16.65078
     360      444        1     0.00000   12.65851    8.32726   22.77522
     361      444        1     0.00000   17.47649   11.41054   16.20409
     362      444        1     0.00000   12.65851    1.54134   22.77522
     363      444        1     0.00000    1.46275   18.92657   23.43481
     364      444        1     0.00000    8.58245    9.05797   16.86368
     365      444        1     0.00000    1.46275   10.68043   23.43481
     366      444        1     0.00000    8.58245    0.81123   16.86368
     367      444        1     0.00000   18.62765    0.81123   15.99119
     368      444        1     0.00000   11.50735   10.68043   22.56232
     369      444        1     0.00000   18.62765    9.05797   15.99119
     370      444        1     0.00000   11.50735   18.92657   22.56232
     371      444        1     0.00000    4.42201    2.59180   21.62634
     372      444        1     0.00000    5.62319   12.46040   15.05561
     373      444        1     0.00000    4.42201    7.27740   21.62634
     374      444        1     0.00000    5.62319   17.14660   15.05561
     375      444        1     0.00000   14.46661    7.27740   24.37039
     376      444        1     0.00000   15.66839   12.46040   17.79966
     377      444        1     0.00000   14.46661    2.59180   24.37039
     378      444        1     0.00000    9.86620   16.87185   22.56350