Created on Thu Dec 12 11:35:59 2024 

        2970 atoms
        3818 bonds
        7426 angles
       10880 dihedrals

           5 atom types
           6 bond types
          12 angle types
           4 dihedral types
           0.000000  40.180000 xlo xhi
           0.000000  39.476000 ylo yhi
           0.000000  39.426000 zlo zhi
           0.000000   0.000000   0.000000 xy xz yz

Masses

    1    15.999400000 # O_2
    2    15.999400000 # O_3
    3    28.085500000 # Si3
    4    26.981538600 # Al3
    5     1.007940000 # H_

Bond Coeffs

    1      365.702108        1.692864  # O_2 Si3
    2      351.182859        1.715879  # O_3 Si3
    3      559.995206        0.990254  # O_3 H_
    4      230.046933        1.811988  # O_2 Al3
    5      221.565563        1.834820  # O_3 Al3
    6      172.712984        1.470529  # Si3 H_

Angle Coeffs

    1              cosine/periodic       88.853997              -1               3 # Si3 O_2 Si3
    2                      fourier      131.621514        0.300235        0.267331        0.266745 # Si3 O_3 H_
    3              cosine/periodic       61.696522              -1               3 # Si3 O_2 Al3
    4                      fourier      221.735285        0.343737        0.374972        0.281246 # O_2 Si3 O_2
    5                      fourier      217.255565        0.343737        0.374972        0.281246 # O_2 Si3 O_3
    6                      fourier      212.931864        0.343737        0.374972        0.281246 # O_3 Si3 O_3
    7                      fourier       85.906433        0.300235        0.267331        0.266745 # Al3 O_3 H_
    8                      fourier      180.815225        0.343737        0.374972        0.281246 # O_2 Al3 O_2
    9                      fourier      177.427303        0.343737        0.374972        0.281246 # O_2 Al3 O_3
   10                      fourier       83.380072        0.343737        0.374972        0.281246 # O_2 Si3 H_
   11                      fourier       81.435257        0.343737        0.374972        0.281246 # O_3 Si3 H_
   12              cosine/periodic      119.062103               1               1 # O_3 H_ Si3

Dihedral Coeffs

    1        0.333333               1               3 # Si3 O_2 Si3 O_2
    2        0.260875               1               2 # H_ O_3 Si3 O_2
    3        0.250000               1               3 # Si3 O_2 Si3 O_2
    4        0.195656               1               2 # H_ O_3 Si3 O_2

Pair Coeffs

    1        0.060000        3.118146 # O_2 O_2
    2        0.060000        3.118146 # O_3 O_3
    3        0.402000        3.826410 # Si3 Si3
    4        0.505000        4.008153 # Al3 Al3
    5        0.044000        2.571134 # H_ H_

Atoms

       1      444        1     0.00000   10.06911    1.37969    9.22292
       2      444        1     0.00000   10.06911    8.48931    9.22292
       3      444        2     0.00000   10.02089   18.35831    3.91894
       4      444        1     0.00000    0.02411    8.48931   10.49008
       5      444        1     0.00000   10.02089   11.24869    3.91894
       6      444        1     0.00000    0.02411    1.37969   10.49008
       7      444        1     0.00000    7.78488    1.46653   10.52398
       8      444        1     0.00000    2.26013   11.33553    3.95325
       9      444        1     0.00000    7.78488    8.40247   10.52398
      10      444        1     0.00000    2.26013   18.27147    3.95325
      11      444        1     0.00000   17.82987    8.40247    9.18902
      12      444        1     0.00000   12.30513   11.33553    2.61789
      13      444        1     0.00000   17.82987    1.46653    9.18902
      14      444        1     0.00000    8.02595    2.69621    8.21520
      15      444        1     0.00000    2.01905   12.56521    1.64406
      16      444        1     0.00000    8.02595    7.17279    8.21520
      17      444        1     0.00000    2.01905   17.04179    1.64406
      18      444        1     0.00000   18.07095    7.17279   11.49780
      19      444        1     0.00000   12.06405   12.56521    4.92707
      20      444        1     0.00000   18.07095    2.69621   11.49780
      21      444        1     0.00000    7.97975    0.06711    8.31376
      22      444        1     0.00000    2.06525    9.93611    1.74263
      23      444        1     0.00000    7.97975    9.80189    8.31376
      24      444        1     0.00000    2.06525   19.67089    1.74263
      25      444        2     0.00000   18.02475    9.80189   11.39924
      26      444        1     0.00000   12.11025    9.93611    4.82850
      27      444        1     0.00000   18.02475    0.06711   11.39924
      28      444        1     0.00000    6.60961    0.75991   12.77678
      29      444        1     0.00000    3.43539   10.62891    6.20565
      30      444        1     0.00000    6.60961    9.10909   12.77678
      31      444        1     0.00000    3.43539   18.97809    6.20565
      32      444        1     0.00000   16.65461    9.10909    6.93622
      33      444        1     0.00000   13.48039   10.62891    0.36548
      34      444        1     0.00000   16.65461    0.75991    6.93622
      35      444        1     0.00000    6.62367   18.85966   10.71717
      36      444        1     0.00000    3.42133    8.99066    4.14643
      37      444        1     0.00000    6.62367   10.74734   10.71717
      38      444        1     0.00000    3.42133    0.87834    4.14643
      39      444        1     0.00000   13.46633    0.87834    2.42470
      40      444        2     0.00000   16.66867   10.74734    8.99583
      41      444        1     0.00000   13.46633    8.99066    2.42470
      42      444        1     0.00000    5.16514    1.30863   10.65291
      43      444        1     0.00000    4.87986   11.17763    4.08177
      44      444        1     0.00000    5.16514    8.56037   10.65291
      45      444        1     0.00000    4.87986   18.42937    4.08177
      46      444        1     0.00000   15.21014    8.56037    9.06009
      47      444        2     0.00000   14.92486   11.17763    2.48896
      48      444        1     0.00000   15.21014    1.30863    9.06009
      49      444        1     0.00000    5.84619    2.55804    1.39292
      50      444        1     0.00000    4.19881   12.42704    7.96405
      51      444        1     0.00000    5.84619    7.31096    1.39292
      52      444        1     0.00000    4.19881   17.17996    7.96405
      53      444        1     0.00000   15.89119    7.31096    5.17782
      54      444        2     0.00000   14.24381   12.42704   11.74895
      55      444        1     0.00000   15.89119    2.55804    5.17782
      56      444        1     0.00000    4.08631    0.89808    0.36154
      57      444        1     0.00000    5.95869   10.76708    6.93227
      58      444        1     0.00000    4.08631    8.97092    0.36154
      59      444        1     0.00000    5.95869   18.83992    6.93227
      60      444        1     0.00000   14.13131    8.97092    6.20960
      61      444        2     0.00000   16.00369   10.76708   12.78073
      62      444        1     0.00000   14.13131    0.89808    6.20960
      63      444        1     0.00000    5.89842    0.01974    2.05528
      64      444        1     0.00000    4.14658    9.88874    8.62641
      65      444        1     0.00000    5.89842    9.84926    2.05528
      66      444        1     0.00000    4.14658   19.71826    8.62641
      67      444        2     0.00000   15.94342    9.84926    4.51546
      68      444        1     0.00000   14.19158    9.88874   11.08659
      69      444        1     0.00000   15.94342    0.01974    4.51546
      70      444        1     0.00000    2.15968    2.49686    1.16031
      71      444        1     0.00000    7.88533   12.36586    7.73144
      72      444        1     0.00000    2.15968    7.37214    1.16031
      73      444        1     0.00000    7.88533   17.24114    7.73144
      74      444        1     0.00000   12.20467    7.37214    5.41043
      75      444        1     0.00000   12.20467    2.49686    5.41043
      76      444        1     0.00000    1.69961    0.73031   12.41012
      77      444        1     0.00000    8.34539   10.59931    5.83899
      78      444        1     0.00000    1.69961    9.13869   12.41012
      79      444        1     0.00000    8.34539   19.00769    5.83899
      80      444        1     0.00000   11.74461    9.13869    7.30288
      81      444        1     0.00000   11.74461    0.73031    7.30288
      82      444        1     0.00000    2.61371    1.54154   10.08005
      83      444        1     0.00000    7.43129   11.41054    3.50891
      84      444        1     0.00000    2.61371    8.32746   10.08005
      85      444        1     0.00000    7.43129   18.19646    3.50891
      86      444        1     0.00000   12.65871    8.32746    9.63295
      87      444        1     0.00000   12.65871    1.54154    9.63295
      88      444        1     0.00000    1.46255   18.92677   10.29295
      89      444        1     0.00000    8.58245    9.05777    3.72181
      90      444        1     0.00000    1.46255   10.68023   10.29295
      91      444        1     0.00000    8.58245    0.81123    3.72181
      92      444        1     0.00000   18.62745    0.81123    2.84932
      93      444        1     0.00000   11.50755   10.68023    9.42005
      94      444        2     0.00000   18.62745    9.05777    2.84932
      95      444        1     0.00000    4.42181    2.59160    8.48448
      96      444        1     0.00000    5.62319   12.46060    1.91334
      97      444        1     0.00000    4.42181    7.27740    8.48448
      98      444        1     0.00000    5.62319   17.14640    1.91334
      99      444        1     0.00000   14.46681    7.27740   11.22852
     100      444        1     0.00000   14.46681    2.59160   11.22852
     101      444        2     0.00000    9.86620   16.87204    9.42163
     102      444        1     0.00000    0.17880    7.00304    2.85050
     103      444        1     0.00000    9.86620   12.73496    9.42163
     104      444        1     0.00000    0.17880    2.86596    2.85050
     105      444        1     0.00000   10.22380    2.86596    3.72063
     106      444        1     0.00000   10.22380    7.00304    3.72063
     107      444        1     0.00000    7.39513   16.40425   10.17585
     108      444        1     0.00000    2.64987    6.53525    3.60472
     109      444        1     0.00000    7.39513   13.20275   10.17585
     110      444        1     0.00000    2.64987    3.33375    3.60472
     111      444        1     0.00000   12.69487    3.33375    2.96602
     112      444        1     0.00000   12.69487    6.53525    2.96602
     113      444        1     0.00000    8.56437   14.80350    8.45175
     114      444        1     0.00000    1.48063    4.93450    1.88062
     115      444        1     0.00000   11.52563    4.93450    4.69051
     116      444        1     0.00000    6.46295   16.99639   12.56507
     117      444        1     0.00000    3.58205    7.12739    5.99393
     118      444        1     0.00000    6.46295   12.61061   12.56507
     119      444        1     0.00000    3.58205    2.74161    5.99393
     120      444        1     0.00000   13.62705    2.74161    0.57680
     121      444        1     0.00000   13.62705    7.12739    0.57680
     122      444        1     0.00000    4.84169   16.93915   10.50033
     123      444        1     0.00000    5.20331    7.07015    3.92959
     124      444        1     0.00000    4.84169   12.66785   10.50033
     125      444        1     0.00000    5.20331    2.79885    3.92959
     126      444        1     0.00000   15.24831    2.79885    2.64154
     127      444        1     0.00000   15.24831    7.07015    2.64154
     128      444        1     0.00000    5.91249   14.80350    0.76092
     129      444        1     0.00000    4.13251    4.93450    7.33205
     130      444        1     0.00000   14.17751    4.93450   12.38095
     131      444        1     0.00000    3.96978   16.40820    0.00394
     132      444        1     0.00000    6.07522    6.53920    6.57507
     133      444        1     0.00000    3.96978   13.19880    0.00394
     134      444        1     0.00000    6.07522    3.32980    6.57507
     135      444        1     0.00000   16.12022    3.32980   13.13793
     136      444        2     0.00000   14.01478   13.19880    6.56719
     137      444        1     0.00000   16.12022    6.53920   13.13793
     138      444        1     0.00000    1.90453   14.80350    0.26928
     139      444        1     0.00000    8.14047    4.93450    6.84041
     140      444        1     0.00000   18.18547    4.93450   12.87259
     141      444        2     0.00000   11.94953   14.80350    6.30146
     142      444        1     0.00000    1.62528   17.11285   12.18934
     143      444        1     0.00000    8.41972    7.24385    5.61820
     144      444        1     0.00000    1.62528   12.49415   12.18934
     145      444        1     0.00000    8.41972    2.62515    5.61820
     146      444        1     0.00000   18.46472    2.62515    0.95293
     147      444        1     0.00000   11.67028   12.49415    7.52366
     148      444        1     0.00000   18.46472    7.24385    0.95293
     149      444        1     0.00000    2.36459   16.52071    9.73310
     150      444        1     0.00000    7.68041    6.65171    3.16197
     151      444        1     0.00000    2.36459   13.08629    9.73310
     152      444        1     0.00000    7.68041    3.21729    3.16197
     153      444        1     0.00000   17.72541    3.21729    3.40917
     154      444        2     0.00000   12.40959   13.08629    9.97990
     155      444        1     0.00000   17.72541    6.65171    3.40917
     156      444        1     0.00000    4.25104   14.80350    9.08493
     157      444        1     0.00000    5.79396    4.93450    2.51420
     158      444        1     0.00000   15.83896    4.93450    4.05694
     159      444        3     0.00000    8.46593    1.40337    9.06522
     160      444        3     0.00000    1.57907   11.27237    2.49448
     161      444        3     0.00000    8.46593    8.46563    9.06522
     162      444        3     0.00000    1.57907   18.33463    2.49448
     163      444        3     0.00000   18.51093    8.46563   10.64778
     164      444        3     0.00000   11.62407   11.27237    4.07665
     165      444        3     0.00000   18.51093    1.40337   10.64778
     166      444        3     0.00000    6.54733    0.66320   11.17057
     167      444        3     0.00000    3.49767   10.53220    4.59983
     168      444        3     0.00000    6.54733    9.20580   11.17057
     169      444        3     0.00000    3.49767   19.07480    4.59983
     170      444        3     0.00000   16.59233    9.20580    8.54243
     171      444        3     0.00000   13.54267   10.53220    1.97130
     172      444        3     0.00000   16.59233    0.66320    8.54243
     173      444        3     0.00000    5.60913    1.05796    0.86067
     174      444        3     0.00000    4.43587   10.92696    7.43180
     175      444        3     0.00000    5.60913    8.81104    0.86067
     176      444        3     0.00000    4.43587   18.68004    7.43180
     177      444        3     0.00000   15.65413    8.81104    5.71007
     178      444        3     0.00000   14.48087   10.92696   12.28120
     179      444        3     0.00000   15.65413    1.05796    5.71007
     180      444        3     0.00000    2.50321    1.01453    0.63200
     181      444        3     0.00000    7.54179   10.88353    7.20313
     182      444        3     0.00000    2.50321    8.85447    0.63200
     183      444        3     0.00000    7.54179   18.72347    7.20313
     184      444        3     0.00000   12.54821    8.85447    5.93874
     185      444        3     0.00000   12.54821    1.01453    5.93874
     186      444        3     0.00000    1.44849    0.71057   10.81968
     187      444        3     0.00000    8.59651   10.57957    4.24894
     188      444        3     0.00000    1.44849    9.15843   10.81968
     189      444        3     0.00000    8.59651   19.02743    4.24894
     190      444        3     0.00000   11.49349    9.15843    8.89332
     191      444        3     0.00000   11.49349    0.71057    8.89332
     192      444        3     0.00000    4.08631    1.35600    9.45830
     193      444        3     0.00000    5.95869   11.22500    2.88717
     194      444        3     0.00000    4.08631    8.51300    9.45830
     195      444        3     0.00000    5.95869   18.38200    2.88717
     196      444        3     0.00000   14.13131    8.51300   10.25470
     197      444        3     0.00000   14.13131    1.35600   10.25470
     198      444        3     0.00000    8.42776   16.33122    8.94300
     199      444        3     0.00000    1.61725    6.46222    2.37226
     200      444        3     0.00000    8.42775   13.27578    8.94300
     201      444        3     0.00000    1.61725    3.40678    2.37226
     202      444        3     0.00000   11.66225    3.40678    4.19887
     203      444        3     0.00000   11.66225    6.46222    4.19887
     204      444        3     0.00000    6.33237   17.30036   10.98803
     205      444        3     0.00000    3.71263    7.43136    4.41689
     206      444        3     0.00000    6.33237   12.30664   10.98803
     207      444        3     0.00000    3.71263    2.43764    4.41689
     208      444        3     0.00000   13.75763    2.43764    2.15384
     209      444        3     0.00000   13.75763    7.43136    2.15384
     210      444        3     0.00000    5.49060   16.33912    0.52831
     211      444        3     0.00000    4.55440    6.47012    7.09944
     212      444        3     0.00000    5.49060   13.26788    0.52831
     213      444        3     0.00000    4.55440    3.39888    7.09944
     214      444        3     0.00000   14.59940    3.39888   12.61356
     215      444        3     0.00000   14.59940    6.47012   12.61356
     216      444        3     0.00000    2.38067   16.34109    0.24050
     217      444        3     0.00000    7.66434    6.47209    6.81163
     218      444        3     0.00000    2.38067   13.26591    0.24050
     219      444        3     0.00000    7.66434    3.39691    6.81163
     220      444        3     0.00000   17.70933    3.39691   12.90137
     221      444        3     0.00000   12.42567   13.26591    6.33063
     222      444        3     0.00000   17.70933    6.47209   12.90137
     223      444        3     0.00000    1.31991   17.35760   10.62807
     224      444        3     0.00000    8.72509    7.48860    4.05694
     225      444        3     0.00000    1.31991   12.24940   10.62807
     226      444        3     0.00000    8.72509    2.38040    4.05694
     227      444        3     0.00000   18.77009    2.38040    2.51420
     228      444        3     0.00000   11.36491   12.24940    9.08493
     229      444        3     0.00000   18.77009    7.48860    2.51420
     230      444        3     0.00000    3.91152   16.35885    9.32031
     231      444        3     0.00000    6.13348    6.48985    2.74917
     232      444        3     0.00000    3.91152   13.24815    9.32031
     233      444        3     0.00000    6.13348    3.37915    2.74917
     234      444        3     0.00000   16.17848    3.37915    3.82156
     235      444        3     0.00000   16.17848    6.48985    3.82156
     236      444        1     0.00000   10.06911    1.37969   22.36519
     237      444        1     0.00000   10.06911    8.48931   22.36519
     238      444        2     0.00000   10.02089   18.35831   17.06081
     239      444        1     0.00000    0.02411    8.48931   23.63194
     240      444        1     0.00000   10.02089   11.24869   17.06081
     241      444        1     0.00000    0.02411    1.37969   23.63194
     242      444        1     0.00000    7.78488    1.46653   23.66625
     243      444        1     0.00000    2.26013   11.33553   17.09511
     244      444        1     0.00000    7.78488    8.40247   23.66625
     245      444        1     0.00000    2.26013   18.27147   17.09511
     246      444        1     0.00000   17.82987    8.40247   22.33089
     247      444        1     0.00000   12.30513   11.33553   15.75975
     248      444        1     0.00000   17.82987    1.46653   22.33089
     249      444        1     0.00000    8.02596    2.69621   21.35706
     250      444        1     0.00000    2.01905   12.56521   14.78593
     251      444        1     0.00000    8.02596    7.17279   21.35706
     252      444        1     0.00000    2.01905   17.04179   14.78593
     253      444        1     0.00000   18.07095    7.17279   24.64007
     254      444        1     0.00000   12.06405   12.56521   18.06894
     255      444        1     0.00000   18.07095    2.69621   24.64007
     256      444        1     0.00000    7.97975    0.06711   21.45563
     257      444        1     0.00000    2.06525    9.93611   14.88450
     258      444        1     0.00000    7.97975    9.80189   21.45563
     259      444        1     0.00000    2.06525   19.67089   14.88450
     260      444        2     0.00000   18.02475    9.80189   24.54150
     261      444        1     0.00000   12.11025    9.93611   17.97037
     262      444        1     0.00000   18.02475    0.06711   24.54150
     263      444        1     0.00000    6.60961    0.75991   25.91865
     264      444        1     0.00000    3.43539   10.62891   19.34752
     265      444        1     0.00000    6.60961    9.10909   25.91865
     266      444        1     0.00000    3.43539   18.97809   19.34752
     267      444        1     0.00000   16.65461    9.10909   20.07848
     268      444        1     0.00000   13.48039   10.62891   13.50735
     269      444        1     0.00000   16.65461    0.75991   20.07848
     270      444        1     0.00000    6.62367   18.85966   23.85943
     271      444        1     0.00000    3.42133    8.99066   17.28830
     272      444        1     0.00000    6.62367   10.74734   23.85943
     273      444        1     0.00000    3.42133    0.87834   17.28830
     274      444        1     0.00000   13.46633    0.87834   15.56657
     275      444        2     0.00000   16.66867   10.74734   22.13770
     276      444        1     0.00000   13.46633    8.99066   15.56657
     277      444        1     0.00000    5.16514    1.30863   23.79477
     278      444        1     0.00000    4.87986   11.17763   17.22404
     279      444        1     0.00000    5.16514    8.56037   23.79477
     280      444        1     0.00000    4.87986   18.42937   17.22404
     281      444        1     0.00000   15.21014    8.56037   22.20196
     282      444        2     0.00000   14.92486   11.17763   15.63123
     283      444        1     0.00000   15.21014    1.30863   22.20196
     284      444        1     0.00000    5.84619    2.55804   14.53518
     285      444        1     0.00000    4.19881   12.42704   21.10592
     286      444        1     0.00000    5.84619    7.31096   14.53518
     287      444        1     0.00000    4.19881   17.17996   21.10592
     288      444        1     0.00000   15.89119    7.31096   18.32008
     289      444        2     0.00000   14.24381   12.42704   24.89082
     290      444        1     0.00000   15.89119    2.55804   18.32008
     291      444        1     0.00000    4.08631    0.89808   13.50341
     292      444        1     0.00000    5.95869   10.76708   20.07454
     293      444        1     0.00000    4.08631    8.97092   13.50341
     294      444        1     0.00000    5.95869   18.83992   20.07454
     295      444        1     0.00000   14.13131    8.97092   19.35146
     296      444        2     0.00000   16.00369   10.76708   25.92260
     297      444        1     0.00000   14.13131    0.89808   19.35146
     298      444        1     0.00000    5.89842    0.01974   15.19754
     299      444        1     0.00000    4.14658    9.88874   21.76828
     300      444        1     0.00000    5.89842    9.84926   15.19754
     301      444        1     0.00000    4.14658   19.71826   21.76828
     302      444        2     0.00000   15.94342    9.84926   17.65772
     303      444        1     0.00000   14.19158    9.88874   24.22846
     304      444        1     0.00000   15.94342    0.01974   17.65772
     305      444        1     0.00000    2.15968    2.49686   14.30257
     306      444        1     0.00000    7.88533   12.36586   20.87331
     307      444        1     0.00000    2.15968    7.37214   14.30257
     308      444        1     0.00000    7.88533   17.24114   20.87331
     309      444        1     0.00000   12.20468    7.37214   18.55269
     310      444        1     0.00000   12.20468    2.49686   18.55269
     311      444        1     0.00000    1.69961    0.73031   25.55199
     312      444        1     0.00000    8.34539   10.59931   18.98086
     313      444        1     0.00000    1.69961    9.13869   25.55199
     314      444        1     0.00000    8.34539   19.00769   18.98086
     315      444        1     0.00000   11.74461    9.13869   20.44514
     316      444        1     0.00000   11.74461    0.73031   20.44514
     317      444        1     0.00000    2.61371    1.54154   23.22191
     318      444        1     0.00000    7.43129   11.41054   16.65078
     319      444        1     0.00000    2.61371    8.32746   23.22191
     320      444        1     0.00000    7.43129   18.19646   16.65078
     321      444        1     0.00000   12.65871    8.32746   22.77522
     322      444        1     0.00000   12.65871    1.54154   22.77522
     323      444        1     0.00000    1.46255   18.92677   23.43481
     324      444        1     0.00000    8.58245    9.05777   16.86368
     325      444        1     0.00000    1.46255   10.68023   23.43481
     326      444        1     0.00000    8.58245    0.81123   16.86368
     327      444        1     0.00000   18.62745    0.81123   15.99119
     328      444        1     0.00000   11.50755   10.68023   22.56232
     329      444        2     0.00000   18.62745    9.05777   15.99119
     330      444        1     0.00000    4.42181    2.59160   21.62634
     331      444        1     0.00000    5.62319   12.46060   15.05561
     332      444        1     0.00000    4.42181    7.27740   21.62634
     333      444        1     0.00000    5.62319   17.14640   15.05561
     334      444        1     0.00000   14.46681    7.27740   24.37039
     335      444        1     0.00000   14.46681    2.59160   24.37039
     336      444        2     0.00000    9.86620   16.87204   22.56350
     337      444        1     0.00000    0.17880    7.00304   15.99237
     338      444        1     0.00000    9.86620   12.73496   22.56350
     339      444        1     0.00000    0.17880    2.86596   15.99237
     340      444        1     0.00000   10.22380    2.86596   16.86250
     341      444        1     0.00000   10.22380    7.00304   16.86250
     342      444        1     0.00000    7.39513   16.40425   23.31772
     343      444        1     0.00000    2.64987    6.53525   16.74698
     344      444        1     0.00000    7.39513   13.20275   23.31772
     345      444        1     0.00000    2.64987    3.33375   16.74698
     346      444        1     0.00000   12.69487    3.33375   16.10828
     347      444        1     0.00000   12.69487    6.53525   16.10828
     348      444        1     0.00000    8.56437   14.80350   21.59362
     349      444        1     0.00000    1.48063    4.93450   15.02249
     350      444        1     0.00000   11.52563    4.93450   17.83238
     351      444        1     0.00000    6.46295   16.99639   25.70693
     352      444        1     0.00000    3.58205    7.12739   19.13620
     353      444        1     0.00000    6.46295   12.61061   25.70693
     354      444        1     0.00000    3.58205    2.74161   19.13620
     355      444        1     0.00000   13.62705    2.74161   13.71907
     356      444        1     0.00000   13.62705    7.12739   13.71907
     357      444        1     0.00000    4.84169   16.93915   23.64259
     358      444        1     0.00000    5.20331    7.07015   17.07146
     359      444        1     0.00000    4.84169   12.66785   23.64259
     360      444        1     0.00000    5.20331    2.79885   17.07146
     361      444        1     0.00000   15.24831    2.79885   15.78341
     362      444        1     0.00000   15.24831    7.07015   15.78341
     363      444        1     0.00000    5.91249   14.80350   13.90279
     364      444        1     0.00000    4.13251    4.93450   20.47392
     365      444        1     0.00000   14.17751    4.93450   25.52321
     366      444        1     0.00000    3.96978   16.40820   13.14581
     367      444        1     0.00000    6.07522    6.53920   19.71694
     368      444        1     0.00000    3.96978   13.19880   13.14581
     369      444        1     0.00000    6.07522    3.32980   19.71694
     370      444        1     0.00000   16.12022    3.32980   26.28019
     371      444        2     0.00000   14.01478   13.19880   19.70906
     372      444        1     0.00000   16.12022    6.53920   26.28019
     373      444        1     0.00000    1.90453   14.80350   13.41154
     374      444        1     0.00000    8.14047    4.93450   19.98228
     375      444        1     0.00000   18.18547    4.93450   26.01446
     376      444        2     0.00000   11.94953   14.80350   19.44372
     377      444        1     0.00000    1.62528   17.11285   25.33121
     378      444        1     0.00000    8.41972    7.24385   18.76007